TITLE     = "fluent21.1.0  build-id: 10179"
VARIABLES = "X"
"Y"
"Velocity Magnitude"
DATASETAUXDATA CFDA.ID1="Pressure"
DATASETAUXDATA CFDA.ID2="Density"
DATASETAUXDATA Common.DensityVar="12"
DATASETAUXDATA Common.PressureVar="3"
DATASETAUXDATA Common.UVar="5"
DATASETAUXDATA Common.VectorVarsAreVelocity="TRUE"
DATASETAUXDATA Common.ViscosityVar="14"
DATASETAUXDATA Common.VVar="7"
ZONE T="sur_out"
 STRANDID=1, SOLUTIONTIME=279
 Nodes=14307, Elements=14184, ZONETYPE=FEQuadrilateral
 DATAPACKING=POINT
 FACENEIGHBORCONNECTIONS=1051
 FACENEIGHBORMODE=GLOBALONETOMANY
 DT=(DOUBLE DOUBLE DOUBLE )
 9.063741353E-01 -1.533338230E-01 2.785091824E-02
 9.085549316E-01 -1.499999695E-01 2.786013505E-02
 9.045625610E-01 -1.499999695E-01 2.769944429E-02
 9.113484739E-01 -1.542039737E-01 2.813259664E-02
 9.125473633E-01 -1.499999695E-01 2.807646368E-02
 9.158872510E-01 -1.545530096E-01 2.837876473E-02
 9.165397949E-01 -1.499999695E-01 2.831237433E-02
 9.202813887E-01 -1.546971369E-01 2.862314698E-02
 9.205321655E-01 -1.499999695E-01 2.854868484E-02
 9.153732023E-01 -1.592847587E-01 2.852189702E-02
 9.105860375E-01 -1.589034663E-01 2.826452850E-02
 9.200174968E-01 -1.594914330E-01 2.877585240E-02
 9.246753578E-01 -1.547218036E-01 2.887187427E-02
 9.245245361E-01 -1.499999695E-01 2.878946327E-02
 9.196650126E-01 -1.643875110E-01 2.893489410E-02
 9.149934157E-01 -1.641505016E-01 2.868602951E-02
 9.247319267E-01 -1.595607292E-01 2.903659731E-02
 9.291435651E-01 -1.546135919E-01 2.912811895E-02
 9.285169678E-01 -1.499999695E-01 2.903664236E-02
 9.189842873E-01 -1.693168603E-01 2.909161418E-02
 9.151122900E-01 -1.691581358E-01 2.887281966E-02
 9.246431338E-01 -1.645467493E-01 2.920110782E-02
 9.295641308E-01 -1.594556999E-01 2.930731800E-02
 9.337923174E-01 -1.542675551E-01 2.939197883E-02
 9.325093994E-01 -1.499999695E-01 2.928892498E-02
 9.167942972E-01 -1.739748461E-01 2.917856675E-02
 9.243358033E-01 -1.697051442E-01 2.936625178E-02
 9.298087871E-01 -1.644979192E-01 2.948287885E-02
 9.345369575E-01 -1.591321581E-01 2.958677193E-02
 9.365017700E-01 -1.499999695E-01 2.950334297E-02
 9.389513414E-01 -1.533187119E-01 2.967867019E-02
 9.236803391E-01 -1.752162271E-01 2.954839930E-02
 9.300185846E-01 -1.697216903E-01 2.966828021E-02
 9.349695572E-01 -1.642417479E-01 2.976465317E-02
 9.397825131E-01 -1.585509680E-01 2.987967806E-02
 9.404941406E-01 -1.499999695E-01 2.970434047E-02
 9.303635284E-01 -1.753017109E-01 2.987656189E-02
 9.232161545E-01 -1.818583126E-01 2.978486574E-02
 9.163281153E-01 -1.813740034E-01 2.948125927E-02
 9.355252294E-01 -1.693559242E-01 2.993600412E-02
 9.399633246E-01 -1.639624724E-01 3.005283596E-02
 9.441600496E-01 -1.537686594E-01 2.999286027E-02
 9.456402443E-01 -1.577784576E-01 3.020893605E-02
 9.444865723E-01 -1.499999695E-01 2.994492981E-02
 9.301936990E-01 -1.820288982E-01 3.011313958E-02
 9.375023765E-01 -1.742006914E-01 3.022243724E-02
 9.226345849E-01 -1.887680603E-01 3.007505226E-02
 9.156516954E-01 -1.882958119E-01 2.978840767E-02
 9.395692581E-01 -1.692421958E-01 3.019382094E-02
 9.454886739E-01 -1.637986387E-01 3.036815869E-02
 9.475435346E-01 -1.539670303E-01 3.022730957E-02
 9.484789429E-01 -1.499999695E-01 3.019321440E-02
 9.298106929E-01 -1.890515631E-01 3.038380651E-02
 9.373303169E-01 -1.818673785E-01 3.045742654E-02
 9.146945579E-01 -1.951420841E-01 3.012472954E-02
 9.218328787E-01 -1.958039722E-01 3.039756113E-02
 9.452493199E-01 -1.694314229E-01 3.050945269E-02
 9.511950355E-01 -1.587907318E-01 3.057565150E-02
 9.510647509E-01 -1.640042044E-01 3.069976574E-02
 9.518771220E-01 -1.543079604E-01 3.048323651E-02
 9.524713745E-01 -1.499999695E-01 3.044189252E-02
 9.292868377E-01 -1.962430231E-01 3.069134472E-02
 9.370960359E-01 -1.891317932E-01 3.071090694E-02
 9.447235495E-01 -1.752362476E-01 3.064928883E-02
 9.445091721E-01 -1.820998357E-01 3.082682579E-02
 9.207163849E-01 -2.030311773E-01 3.072820358E-02
 9.148725468E-01 -2.026967259E-01 3.049971656E-02
 9.511988423E-01 -1.694421555E-01 3.085539623E-02
 9.561771036E-01 -1.590482617E-01 3.087560622E-02
 9.563496295E-01 -1.639608538E-01 3.101081117E-02
 9.562857932E-01 -1.544540392E-01 3.075288611E-02
 9.564637451E-01 -1.499999695E-01 3.069453269E-02
 9.368725146E-01 -1.964014959E-01 3.100254757E-02
 9.286355164E-01 -2.037008615E-01 3.102668789E-02
 9.443383146E-01 -1.892000339E-01 3.105248745E-02
 9.516133455E-01 -1.752047448E-01 3.102580826E-02
 9.516099804E-01 -1.820850048E-01 3.120592204E-02
 9.175400052E-01 -2.099185105E-01 3.097961589E-02
 9.568465485E-01 -1.691022408E-01 3.115424006E-02
 9.608675286E-01 -1.589544656E-01 3.115009929E-02
 9.612956248E-01 -1.636571894E-01 3.129718618E-02
 9.606200050E-01 -1.544334409E-01 3.100790023E-02
 9.604561768E-01 -1.499999695E-01 3.093962527E-02
 9.442580699E-01 -1.963791091E-01 3.131449701E-02
 9.368548601E-01 -2.038575609E-01 3.133954874E-02
 9.276997878E-01 -2.116763707E-01 3.137989922E-02
 9.514582129E-01 -1.892047088E-01 3.140454091E-02
 9.588880322E-01 -1.740253153E-01 3.141304289E-02
 9.588240880E-01 -1.818227195E-01 3.158704806E-02
 9.609441486E-01 -1.689537052E-01 3.142201307E-02
 9.653773338E-01 -1.586410441E-01 3.138513050E-02
 9.670170424E-01 -1.627240439E-01 3.160444725E-02
 9.648728507E-01 -1.542952404E-01 3.124834118E-02
 9.644485474E-01 -1.499999695E-01 3.117688808E-02
 9.446877757E-01 -2.035377877E-01 3.160699039E-02
 9.511387018E-01 -1.963991800E-01 3.163301748E-02
 9.372382573E-01 -2.118070106E-01 3.170783866E-02
 9.273936275E-01 -2.212738868E-01 3.173003897E-02
 9.173436780E-01 -2.209147683E-01 3.142208155E-02
 9.587182113E-01 -1.891619236E-01 3.176829336E-02
 9.662120305E-01 -1.750431663E-01 3.184586560E-02
 9.660752234E-01 -1.820083639E-01 3.197694162E-02
 9.667444453E-01 -1.690038490E-01 3.173496674E-02
 9.687604493E-01 -1.585520757E-01 3.160420709E-02
 9.690536032E-01 -1.540762192E-01 3.148320323E-02
 9.684409790E-01 -1.499999695E-01 3.140981828E-02
 9.473418218E-01 -2.103881614E-01 3.202873648E-02
 9.503205897E-01 -2.035624704E-01 3.187586683E-02
 9.585223694E-01 -1.964824224E-01 3.197646056E-02
 9.370974519E-01 -2.213380127E-01 3.205297976E-02
 9.274657950E-01 -2.311744584E-01 3.201678609E-02
 9.174098815E-01 -2.312835999E-01 3.173476920E-02
 9.660488459E-01 -1.891667801E-01 3.214014997E-02
 9.731355162E-01 -1.751248668E-01 3.221976758E-02
 9.732086682E-01 -1.819903500E-01 3.235924362E-02
 9.728042098E-01 -1.692841454E-01 3.207877938E-02
 9.729120411E-01 -1.637297756E-01 3.196130685E-02
 9.736054537E-01 -1.587291759E-01 3.186514261E-02
 9.741509171E-01 -1.534289073E-01 3.174981864E-02
 9.724333496E-01 -1.499999695E-01 3.161038922E-02
 9.470720462E-01 -2.211245157E-01 3.239053652E-02
 9.581385170E-01 -2.039606401E-01 3.221517706E-02
 9.660989304E-01 -1.964433305E-01 3.233411436E-02
 9.367641620E-01 -2.311902646E-01 3.231031068E-02
 9.283813001E-01 -2.409853805E-01 3.221126934E-02
 9.179457012E-01 -2.416575019E-01 3.196228923E-02
 9.732910748E-01 -1.890776735E-01 3.250566177E-02
 9.803246555E-01 -1.741424713E-01 3.258995327E-02
 9.803328513E-01 -1.817290196E-01 3.272458344E-02
 9.784331753E-01 -1.692470078E-01 3.236990493E-02
 9.782331320E-01 -1.641461778E-01 3.225585306E-02
 9.786128642E-01 -1.591705864E-01 3.214829109E-02
 9.792477509E-01 -1.543140108E-01 3.205502452E-02
 9.764257813E-01 -1.499999695E-01 3.179515450E-02
 9.573904399E-01 -2.119090223E-01 3.248156007E-02
 9.467274024E-01 -2.313271992E-01 3.263069892E-02
 9.571384466E-01 -2.214621281E-01 3.275808679E-02
 9.663389475E-01 -2.039076741E-01 3.257529361E-02
 9.734896398E-01 -1.962497895E-01 3.267798251E-02
 9.358775141E-01 -2.409695196E-01 3.245359318E-02
 9.322361904E-01 -2.501400422E-01 3.243466266E-02
 9.191904432E-01 -2.524483661E-01 3.213596108E-02
 9.804112004E-01 -1.889173528E-01 3.285952399E-02
 9.873459249E-01 -1.752232714E-01 3.297181218E-02
 9.873888338E-01 -1.818531253E-01 3.307850348E-02
 9.823758098E-01 -1.693881911E-01 3.261225987E-02
 9.829874433E-01 -1.644041921E-01 3.251980770E-02
 9.833790799E-01 -1.594618640E-01 3.241173173E-02
 9.804181519E-01 -1.499999695E-01 3.201545157E-02
 9.838183274E-01 -1.546364899E-01 3.230024592E-02
 9.669599122E-01 -2.118425983E-01 3.285690076E-02
 9.461642621E-01 -2.415763608E-01 3.274929509E-02
 9.570313596E-01 -2.314700704E-01 3.297476749E-02
 9.671102830E-01 -2.213833227E-01 3.312645160E-02
 9.741710821E-01 -2.034136964E-01 3.288226919E-02
 9.804011012E-01 -1.960898447E-01 3.300823305E-02
 9.068370381E-01 -2.419266309E-01 3.169723205E-02
 9.067628360E-01 -2.530357910E-01 3.187653967E-02
 9.198820597E-01 -2.649852497E-01 3.226835842E-02
 9.327691378E-01 -2.641116002E-01 3.252683891E-02
 9.876159369E-01 -1.887726030E-01 3.320527285E-02
 9.939136069E-01 -1.751529411E-01 3.328543730E-02
 9.942586497E-01 -1.816650765E-01 3.340793079E-02
 9.877585564E-01 -1.697317691E-01 3.287878557E-02
 9.879718604E-01 -1.645903207E-01 3.277573174E-02
 9.881076958E-01 -1.596093971E-01 3.265628100E-02
 9.844105835E-01 -1.499999695E-01 3.224516126E-02
 9.882419429E-01 -1.547528553E-01 3.252582705E-02
 9.770372359E-01 -2.102161902E-01 3.322485724E-02
 9.450411483E-01 -2.522147691E-01 3.278475228E-02
 9.570537168E-01 -2.418094098E-01 3.308109918E-02
 9.673297280E-01 -2.313318819E-01 3.331934732E-02
 9.770854882E-01 -2.209457359E-01 3.348258001E-02
 9.798368819E-01 -2.032983154E-01 3.316612408E-02
 9.878709144E-01 -1.959099152E-01 3.334549054E-02
 9.067203562E-01 -2.653684258E-01 3.202693260E-02
 9.447286606E-01 -2.644611246E-01 3.279686559E-02
 9.343255005E-01 -2.768840028E-01 3.259650519E-02
 9.208962641E-01 -2.780353609E-01 3.237989447E-02
 9.947876259E-01 -1.883931451E-01 3.353578695E-02
 1.000690555E+00 -1.739601030E-01 3.358336475E-02
 1.000926159E+00 -1.812086260E-01 3.370371512E-02
 9.933389181E-01 -1.697106541E-01 3.315622180E-02
 9.930365016E-01 -1.645875971E-01 3.302539467E-02
 9.928402608E-01 -1.596098277E-01 3.288860329E-02
 9.884029541E-01 -1.499999695E-01 3.245864726E-02
 9.926387885E-01 -1.547523025E-01 3.273944828E-02
 9.571221407E-01 -2.527076542E-01 3.310324129E-02
 9.679851611E-01 -2.415025012E-01 3.341236847E-02
 9.773058574E-01 -2.310127290E-01 3.364543107E-02
 9.871328151E-01 -2.115806049E-01 3.366779889E-02
 9.869016203E-01 -2.211811315E-01 3.383977615E-02
 9.877571420E-01 -2.034852459E-01 3.349934870E-02
 9.957147516E-01 -1.952966430E-01 3.368309967E-02
 9.067031130E-01 -2.785026077E-01 3.215829254E-02
 9.572339406E-01 -2.647169730E-01 3.308076123E-02
 9.439883844E-01 -2.768074932E-01 3.280274805E-02
 9.397110436E-01 -2.885719396E-01 3.272670741E-02
 9.227243225E-01 -2.917815427E-01 3.247705568E-02
 1.001551095E+00 -1.878025098E-01 3.381412761E-02
 9.986329747E-01 -1.693362215E-01 3.338398068E-02
 1.007491478E+00 -1.748834593E-01 3.389633350E-02
 1.007192820E+00 -1.813851911E-01 3.397998534E-02
 9.979870857E-01 -1.644108945E-01 3.325360314E-02
 9.975700752E-01 -1.594697491E-01 3.310824279E-02
 9.923953857E-01 -1.499999695E-01 3.266179042E-02
 9.970696896E-01 -1.546364409E-01 3.294415515E-02
 9.692933714E-01 -2.520998592E-01 3.342347761E-02
 9.783001551E-01 -2.407695002E-01 3.370727732E-02
 9.866085367E-01 -2.310306763E-01 3.395152772E-02
 9.968483057E-01 -2.114502816E-01 3.403177015E-02
 9.968185359E-01 -2.211843737E-01 3.418441564E-02
 9.962019609E-01 -2.031574062E-01 3.385051536E-02
 1.004003505E+00 -1.937188692E-01 3.401710557E-02
 9.067015748E-01 -2.926002558E-01 3.227046708E-02
 8.925123049E-01 -2.780349790E-01 3.195940211E-02
 8.935580071E-01 -2.649807093E-01 3.180876465E-02
 9.699907934E-01 -2.643649974E-01 3.337394982E-02
 9.572165011E-01 -2.773098890E-01 3.304181560E-02
 9.407412899E-01 -3.067220843E-01 3.275178972E-02
 9.236165758E-01 -3.079155978E-01 3.254736981E-02
 1.006470294E+00 -1.878372613E-01 3.405064082E-02
 1.002488555E+00 -1.692192670E-01 3.358024067E-02
 1.014157245E+00 -1.748517639E-01 3.415706106E-02
 1.013860520E+00 -1.815634688E-01 3.424858040E-02
 1.007913779E+00 -1.693151555E-01 3.380211729E-02
 1.002689366E+00 -1.642182297E-01 3.346543200E-02
 1.002364226E+00 -1.592009916E-01 3.331653721E-02
 9.963877563E-01 -1.499999695E-01 3.285729277E-02
 1.001666064E+00 -1.543141615E-01 3.313887364E-02
 9.821512810E-01 -2.498188581E-01 3.377463875E-02
 9.857583208E-01 -2.407439126E-01 3.395158371E-02
 9.965617633E-01 -2.312002400E-01 3.425136297E-02
 1.007272098E+00 -2.098788531E-01 3.438772912E-02
 1.007023092E+00 -2.209161968E-01 3.450623186E-02
 1.004499131E+00 -2.023923531E-01 3.415030188E-02
 9.067097124E-01 -3.083706348E-01 3.236416034E-02
 8.906812866E-01 -2.917799313E-01 3.208559765E-02
 8.790728965E-01 -2.768838417E-01 3.179762933E-02
 8.806486945E-01 -2.641027523E-01 3.163074071E-02
 9.826148072E-01 -2.635783643E-01 3.365246776E-02
 9.709297194E-01 -2.770095879E-01 3.330617565E-02
 9.567757205E-01 -2.906645749E-01 3.300017979E-02
 9.243357852E-01 -3.248018454E-01 3.259632429E-02
 9.419928547E-01 -3.239108556E-01 3.276901982E-02
 9.576728538E-01 -3.064869275E-01 3.296876837E-02
 1.013112649E+00 -1.883809612E-01 3.430717434E-02
 1.013771822E+00 -1.691265416E-01 3.403599005E-02
 1.021468092E+00 -1.737549512E-01 3.441140855E-02
 1.020947098E+00 -1.815627078E-01 3.450951183E-02
 1.007889739E+00 -1.640053539E-01 3.367976577E-02
 1.007503466E+00 -1.587769358E-01 3.352408624E-02
 1.000380188E+00 -1.499999695E-01 3.304297199E-02
 1.006827689E+00 -1.534067646E-01 3.333307329E-02
 9.960096374E-01 -2.413572621E-01 3.420304706E-02
 1.006899339E+00 -2.312336484E-01 3.453965088E-02
 1.017452126E+00 -2.118270622E-01 3.474883746E-02
 1.017115003E+00 -2.213667716E-01 3.479981094E-02
 1.010537838E+00 -2.028083718E-01 3.441176801E-02
 1.011786483E+00 -1.952493254E-01 3.435169517E-02
 9.067249671E-01 -3.251146642E-01 3.244141824E-02
 8.898032533E-01 -3.079100332E-01 3.220337489E-02
 8.736865310E-01 -2.885695734E-01 3.190095678E-02
 9.944390389E-01 -2.639962913E-01 3.389413926E-02
 9.948606783E-01 -2.519014778E-01 3.406491037E-02
 9.839669064E-01 -2.760570244E-01 3.354700729E-02
 9.725871000E-01 -2.902282876E-01 3.324660616E-02
 9.594856224E-01 -3.227741688E-01 3.295146640E-02
 9.434661810E-01 -3.413816075E-01 3.277689030E-02
 9.250363948E-01 -3.423088245E-01 3.263067615E-02
 9.737675106E-01 -3.057289841E-01 3.318127789E-02
 1.020312615E+00 -1.888121733E-01 3.457686327E-02
 1.019569441E+00 -1.686170447E-01 3.422942161E-02
 1.013419875E+00 -1.636679744E-01 3.389308580E-02
 1.028728477E+00 -1.752319206E-01 3.467724352E-02
 1.028139050E+00 -1.820969622E-01 3.475379908E-02
 1.012899502E+00 -1.584624384E-01 3.372766144E-02
 1.004372559E+00 -1.499999695E-01 3.318996862E-02
 1.012206376E+00 -1.539245205E-01 3.356751632E-02
 1.006892388E+00 -2.415815950E-01 3.446711599E-02
 1.017205542E+00 -2.312355109E-01 3.479684451E-02
 1.026820200E+00 -2.123498845E-01 3.501832779E-02
 1.026816694E+00 -2.214929710E-01 3.504746985E-02
 1.018613808E+00 -2.037115989E-01 3.468920073E-02
 1.019495427E+00 -1.960691637E-01 3.463222289E-02
 9.067443124E-01 -3.425829471E-01 3.250028398E-02
 8.891142460E-01 -3.247925433E-01 3.230738351E-02
 8.726743515E-01 -3.067092743E-01 3.207377615E-02
 1.006909666E+00 -2.524179407E-01 3.431020073E-02
 1.006889704E+00 -2.643276282E-01 3.411058070E-02
 9.934625401E-01 -2.760862675E-01 3.373233061E-02
 9.888897497E-01 -2.874654172E-01 3.351609944E-02
 9.624079187E-01 -3.395033110E-01 3.293513520E-02
 9.759392371E-01 -3.211722543E-01 3.312366068E-02
 9.444411152E-01 -3.597867272E-01 3.277333798E-02
 9.256142291E-01 -3.604728859E-01 3.265174451E-02
 9.889059610E-01 -3.049446257E-01 3.337024510E-02
 1.027681045E+00 -1.891904668E-01 3.482511697E-02
 1.023938197E+00 -1.685113190E-01 3.439965113E-02
 1.019085204E+00 -1.630263163E-01 3.408691592E-02
 1.035479929E+00 -1.757470189E-01 3.488289032E-02
 1.035189890E+00 -1.823696089E-01 3.496875214E-02
 1.029818721E+00 -1.693054744E-01 3.459373151E-02
 1.018436000E+00 -1.574394115E-01 3.391055186E-02
 1.008364990E+00 -1.499999695E-01 3.332834960E-02
 1.016718391E+00 -1.538039619E-01 3.371865958E-02
 1.012357361E+00 -1.499999695E-01 3.349595917E-02
 1.017811475E+00 -2.413044832E-01 3.470179909E-02
 1.027078813E+00 -2.310351562E-01 3.500941667E-02
 1.026984468E+00 -2.041441943E-01 3.495594054E-02
 1.036061047E+00 -2.119493435E-01 3.523584698E-02
 1.036308844E+00 -2.212337423E-01 3.524376711E-02
 1.027275139E+00 -1.964907914E-01 3.488871029E-02
 9.067655482E-01 -3.606977544E-01 3.254282012E-02
 8.884516377E-01 -3.422963867E-01 3.238839542E-02
 8.714539094E-01 -3.238906114E-01 3.219912927E-02
 1.019079774E+00 -2.518174668E-01 3.453225818E-02
 1.019695309E+00 -2.640126327E-01 3.431207680E-02
 1.006568766E+00 -2.767817507E-01 3.390489354E-02
 9.826511967E-01 -3.352695152E-01 3.312061716E-02
 9.640355210E-01 -3.585531410E-01 3.290741225E-02
 9.879115907E-01 -3.208320950E-01 3.326065962E-02
 9.446452900E-01 -3.787246193E-01 3.276296441E-02
 9.262119695E-01 -3.791015272E-01 3.266478552E-02
 1.005069293E+00 -3.057074201E-01 3.353665353E-02
 1.005526241E+00 -2.900108809E-01 3.371182634E-02
 1.034990972E+00 -1.893434817E-01 3.504218027E-02
 1.024888044E+00 -1.623260025E-01 3.427512845E-02
 1.035867906E+00 -1.697907632E-01 3.478358587E-02
 1.042143948E+00 -1.755737398E-01 3.505036323E-02
 1.042153350E+00 -1.822870006E-01 3.514692745E-02
 1.030737879E+00 -1.636732847E-01 3.449728577E-02
 1.023587639E+00 -1.580366065E-01 3.410053852E-02
 1.019862928E+00 -1.538203832E-01 3.384607966E-02
 1.016349792E+00 -1.499999695E-01 3.365224066E-02
 1.028093704E+00 -2.405739224E-01 3.489711023E-02
 1.036277261E+00 -2.308367923E-01 3.517052862E-02
 1.035242738E+00 -2.040331018E-01 3.517753282E-02
 1.045877857E+00 -2.101843784E-01 3.542393961E-02
 1.046103683E+00 -2.206594954E-01 3.539643459E-02
 1.034947869E+00 -1.965592114E-01 3.510858815E-02
 9.067857807E-01 -3.793345869E-01 3.257426120E-02
 8.879157122E-01 -3.604570803E-01 3.245036084E-02
 8.700191805E-01 -3.413556752E-01 3.229817281E-02
 1.031952759E+00 -2.495068194E-01 3.476176984E-02
 1.032438745E+00 -2.631898499E-01 3.447349789E-02
 1.020415262E+00 -2.766127875E-01 3.408600707E-02
 9.843315031E-01 -3.566799881E-01 3.304289872E-02
 9.649483986E-01 -3.781852835E-01 3.287169140E-02
 1.004192579E+00 -3.218260145E-01 3.338511327E-02
 9.429487128E-01 -3.977789729E-01 3.274738063E-02
 9.277622974E-01 -3.978029262E-01 3.267248705E-02
 1.021597073E+00 -2.899476318E-01 3.388127448E-02
 1.021659273E+00 -3.058968806E-01 3.368371932E-02
 1.042145902E+00 -1.892670184E-01 3.522388178E-02
 1.036390991E+00 -1.642355829E-01 3.467071094E-02
 1.041791684E+00 -1.698544498E-01 3.493838817E-02
 1.049160449E+00 -1.744134297E-01 3.518781456E-02
 1.049140680E+00 -1.819405581E-01 3.529373768E-02
 1.027073125E+00 -1.583287164E-01 3.423856355E-02
 1.031848296E+00 -1.587806037E-01 3.438878854E-02
 1.023938519E+00 -1.540039568E-01 3.398496595E-02
 1.020342163E+00 -1.499999695E-01 3.378969965E-02
 1.035531769E+00 -2.404492309E-01 3.502070512E-02
 1.046259791E+00 -2.306221716E-01 3.529248363E-02
 1.042988800E+00 -2.034855522E-01 3.534533398E-02
 1.055973690E+00 -2.206014222E-01 3.550385702E-02
 1.055680260E+00 -2.114715847E-01 3.556257503E-02
 1.042291016E+00 -1.963813606E-01 3.528838217E-02
 9.068004778E-01 -3.984457815E-01 3.259520992E-02
 8.873592113E-01 -3.790769056E-01 3.249755720E-02
 8.690841358E-01 -3.597593576E-01 3.237705128E-02
 1.044344285E+00 -2.634791002E-01 3.456845998E-02
 1.044669175E+00 -2.514827719E-01 3.484340592E-02
 1.033798499E+00 -2.756601935E-01 3.423916955E-02
 1.002665734E+00 -3.381599278E-01 3.325750093E-02
 1.003879218E+00 -3.561544556E-01 3.316211523E-02
 9.867281156E-01 -3.766466257E-01 3.298690775E-02
 9.643301983E-01 -3.987488889E-01 3.283396229E-02
 1.021131553E+00 -3.224610278E-01 3.350588767E-02
 9.350282856E-01 -4.157873574E-01 3.268279025E-02
 1.038785823E+00 -2.872267166E-01 3.405801385E-02
 1.038829249E+00 -3.053801849E-01 3.379399665E-02
 1.049153346E+00 -1.890904333E-01 3.537201479E-02
 1.037091881E+00 -1.589661002E-01 3.454201733E-02
 1.041873980E+00 -1.644796116E-01 3.481691439E-02
 1.047287922E+00 -1.695766075E-01 3.505120681E-02
 1.056042522E+00 -1.754239693E-01 3.532848045E-02
 1.056108855E+00 -1.819876856E-01 3.541631449E-02
 1.027958339E+00 -1.541201145E-01 3.412422919E-02
 1.032490655E+00 -1.541073531E-01 3.425623261E-02
 1.024334595E+00 -1.499999695E-01 3.392571147E-02
 1.045828857E+00 -2.408699519E-01 3.510009525E-02
 1.056886297E+00 -2.301017832E-01 3.537797750E-02
 1.048555493E+00 -2.033559164E-01 3.546630651E-02
 1.056276938E+00 -2.035330467E-01 3.557243118E-02
 1.065241950E+00 -2.201430435E-01 3.556854451E-02
 1.064593588E+00 -2.115532101E-01 3.563824650E-02
 1.049087521E+00 -1.962346501E-01 3.543016090E-02
 9.068077271E-01 -4.187775542E-01 3.258601154E-02
 8.858366386E-01 -3.977729650E-01 3.252841094E-02
 8.689134970E-01 -3.786995827E-01 3.243922625E-02
 1.056744674E+00 -2.636151208E-01 3.461388766E-02
 1.056592794E+00 -2.520383483E-01 3.489113763E-02
 1.043556267E+00 -2.755225941E-01 3.432139372E-02
 1.019946789E+00 -3.393549145E-01 3.335878886E-02
 1.017854444E+00 -3.566881638E-01 3.324200944E-02
 1.010607883E+00 -3.729733136E-01 3.311483134E-02
 9.869848428E-01 -3.987098325E-01 3.293270276E-02
 9.623207044E-01 -4.201913732E-01 3.276974366E-02
 1.038704166E+00 -3.226216081E-01 3.359608104E-02
 1.056166039E+00 -3.057322725E-01 3.385447655E-02
 1.056148025E+00 -2.896229789E-01 3.409491545E-02
 1.056244605E+00 -1.889629742E-01 3.549193614E-02
 1.037840867E+00 -1.534920315E-01 3.438323930E-02
 1.042299371E+00 -1.593207424E-01 3.468228533E-02
 1.047032075E+00 -1.644912176E-01 3.493546970E-02
 1.051187172E+00 -1.695522735E-01 3.514113199E-02
 1.062354506E+00 -1.755390303E-01 3.541669221E-02
 1.063013012E+00 -1.816560238E-01 3.550689180E-02
 1.056565979E+00 -1.697809450E-01 3.523265579E-02
 1.032319336E+00 -1.499999695E-01 3.418192061E-02
 1.028327026E+00 -1.499999695E-01 3.405868728E-02
 1.056878557E+00 -2.409142160E-01 3.516397758E-02
 1.068463140E+00 -2.282225680E-01 3.543567088E-02
 1.056352823E+00 -1.961344273E-01 3.554436220E-02
 1.064509865E+00 -2.031731251E-01 3.565747566E-02
 1.071920496E+00 -2.201667041E-01 3.557744035E-02
 1.072909576E+00 -2.114014950E-01 3.566109038E-02
 9.068182925E-01 -4.449716623E-01 3.244448083E-02
 9.353019866E-01 -4.443859605E-01 3.251507397E-02
 8.785745141E-01 -4.157589450E-01 3.251538918E-02
 8.706354072E-01 -3.977550713E-01 3.248414792E-02
 1.057296869E+00 -2.756371220E-01 3.435234497E-02
 1.068762050E+00 -2.631930255E-01 3.464322995E-02
 1.068113809E+00 -2.520448856E-01 3.489931660E-02
 1.038129227E+00 -3.400674631E-01 3.343325260E-02
 1.036906240E+00 -3.581489277E-01 3.329697743E-02
 1.010056103E+00 -3.981865934E-01 3.301903829E-02
 9.867248712E-01 -4.211767681E-01 3.284751971E-02
 9.630483123E-01 -4.448957992E-01 3.259121995E-02
 1.056685842E+00 -3.224522660E-01 3.365355259E-02
 1.072977162E+00 -3.053723308E-01 3.387104139E-02
 1.072331383E+00 -2.897856007E-01 3.410235164E-02
 1.063356575E+00 -1.886713248E-01 3.558062517E-02
 1.043017987E+00 -1.543594811E-01 3.454398297E-02
 1.036311768E+00 -1.499999695E-01 3.427510539E-02
 1.047235427E+00 -1.594574017E-01 3.479987667E-02
 1.051757336E+00 -1.644485769E-01 3.503181071E-02
 1.068154472E+00 -1.752695380E-01 3.547032429E-02
 1.070240079E+00 -1.804360437E-01 3.556203637E-02
 1.062213277E+00 -1.698100366E-01 3.531333838E-02
 1.056854319E+00 -1.643569901E-01 3.511343693E-02
 1.068243924E+00 -2.405741461E-01 3.517602651E-02
 1.063790127E+00 -1.958260814E-01 3.563037179E-02
 1.073363753E+00 -2.017777103E-01 3.570082756E-02
 1.081062929E+00 -2.208840087E-01 3.552900822E-02
 1.081706943E+00 -2.120873367E-01 3.563300496E-02
 9.362842762E-01 -4.718369234E-01 3.202498642E-02
 9.068322395E-01 -4.721921314E-01 3.196823122E-02
 8.783224290E-01 -4.443622770E-01 3.238881192E-02
 8.492548181E-01 -3.986902284E-01 3.245532764E-02
 8.486096674E-01 -3.781370358E-01 3.239937887E-02
 1.072735630E+00 -2.736733122E-01 3.439406222E-02
 1.077448897E+00 -2.633745018E-01 3.461482281E-02
 1.078862758E+00 -2.523156789E-01 3.485653155E-02
 1.056943285E+00 -3.401021660E-01 3.348478544E-02
 1.034521531E+00 -3.771907295E-01 3.318228970E-02
 1.057020784E+00 -3.585457711E-01 3.334458665E-02
 1.009040160E+00 -4.215816174E-01 3.290967589E-02
 1.033551693E+00 -3.994435251E-01 3.308244142E-02
 9.884289146E-01 -4.441307982E-01 3.267310718E-02
 9.659882411E-01 -4.707156211E-01 3.210048650E-02
 1.074892355E+00 -3.212620958E-01 3.367778964E-02
 1.088510830E+00 -3.046479872E-01 3.386441591E-02
 1.087453778E+00 -2.904109471E-01 3.406111192E-02
 1.070373036E+00 -1.882503855E-01 3.563811886E-02
 1.047653238E+00 -1.546105356E-01 3.465251846E-02
 1.040304199E+00 -1.499999695E-01 3.436563124E-02
 1.044296631E+00 -1.499999695E-01 3.447708068E-02
 1.051986189E+00 -1.594000755E-01 3.489466596E-02
 1.072318328E+00 -1.753084482E-01 3.550668131E-02
 1.067704976E+00 -1.697946297E-01 3.537255908E-02
 1.062245693E+00 -1.641336856E-01 3.518438159E-02
 1.056889980E+00 -1.590769730E-01 3.496905397E-02
 1.080023031E+00 -2.301271631E-01 3.536152726E-02
 1.079505182E+00 -2.410784080E-01 3.512446876E-02
 1.070921499E+00 -1.953245128E-01 3.568277022E-02
 1.082295915E+00 -2.035468869E-01 3.568646843E-02
 1.090514102E+00 -2.125048606E-01 3.556395160E-02
 1.090571953E+00 -2.211275539E-01 3.544420461E-02
 9.068493652E-01 -5.000000000E-01 3.161674649E-02
 9.369863281E-01 -5.000000000E-01 3.166820309E-02
 8.773708194E-01 -4.718239041E-01 3.193001304E-02
 8.505491460E-01 -4.448394396E-01 3.235893942E-02
 8.512703688E-01 -4.201268575E-01 3.247222896E-02
 1.090375854E+00 -2.526822489E-01 3.476512631E-02
 1.089432930E+00 -2.642825773E-01 3.452112751E-02
 1.075882251E+00 -3.392640091E-01 3.350842773E-02
 1.056980474E+00 -3.781590665E-01 3.322810575E-02
 1.077163551E+00 -3.577008366E-01 3.336637114E-02
 1.032671293E+00 -4.224250763E-01 3.295545353E-02
 1.006503840E+00 -4.444077377E-01 3.271175590E-02
 1.056845323E+00 -3.999011951E-01 3.312435389E-02
 9.973718804E-01 -4.660063752E-01 3.225691347E-02
 9.671232910E-01 -5.000000000E-01 3.174412863E-02
 1.094021447E+00 -3.179296618E-01 3.368051439E-02
 1.087838950E+00 -2.763763113E-01 3.428935151E-02
 1.099575997E+00 -3.047890944E-01 3.381556938E-02
 1.101122420E+00 -2.908057603E-01 3.398231261E-02
 1.076961735E+00 -1.885809825E-01 3.566824225E-02
 1.077351505E+00 -1.817013445E-01 3.561180586E-02
 1.052094662E+00 -1.546194404E-01 3.473942762E-02
 1.048288940E+00 -1.499999695E-01 3.457727975E-02
 1.072828757E+00 -1.698274022E-01 3.541228529E-02
 1.078055266E+00 -1.757042555E-01 3.553589066E-02
 1.067648167E+00 -1.642790885E-01 3.524580142E-02
 1.062276148E+00 -1.580890910E-01 3.501758781E-02
 1.056484262E+00 -1.544677862E-01 3.480943812E-02
 1.090874220E+00 -2.412819354E-01 3.502274427E-02
 1.091056486E+00 -2.303079663E-01 3.526064374E-02
 1.076159081E+00 -1.954438740E-01 3.570350180E-02
 1.083379158E+00 -1.960932913E-01 3.569460817E-02
 1.090718748E+00 -2.042267573E-01 3.563057947E-02
 1.098967275E+00 -2.125792856E-01 3.546356567E-02
 1.099560366E+00 -2.208028080E-01 3.534882810E-02
 8.767124023E-01 -5.000000000E-01 3.158714063E-02
 8.476390871E-01 -4.706840117E-01 3.192166821E-02
 1.102293870E+00 -2.527803547E-01 3.463676124E-02
 1.102053525E+00 -2.646382504E-01 3.440421469E-02
 1.094513569E+00 -3.379403972E-01 3.349713031E-02
 1.079402357E+00 -3.769331040E-01 3.325069445E-02
 1.096350741E+00 -3.560319285E-01 3.336923027E-02
 1.056696868E+00 -4.226624725E-01 3.299054558E-02
 1.031174405E+00 -4.459121601E-01 3.271887531E-02
 1.079970897E+00 -3.992816817E-01 3.314579320E-02
 9.972602539E-01 -5.000000000E-01 3.180971288E-02
 1.101731241E+00 -2.771049952E-01 3.418474667E-02
 1.114624554E+00 -3.056877917E-01 3.371723785E-02
 1.115665899E+00 -2.908430829E-01 3.387510241E-02
 1.084155225E+00 -1.820888189E-01 3.561579592E-02
 1.083945277E+00 -1.889346014E-01 3.566812059E-02
 1.052281372E+00 -1.499999695E-01 3.465881463E-02
 1.072949095E+00 -1.642854259E-01 3.528723312E-02
 1.078363207E+00 -1.699232212E-01 3.543671137E-02
 1.084192721E+00 -1.758860831E-01 3.554056895E-02
 1.067711816E+00 -1.589029504E-01 3.510427503E-02
 1.060710127E+00 -1.541776458E-01 3.485642872E-02
 1.056273804E+00 -1.499999695E-01 3.472766112E-02
 1.102670604E+00 -2.286741012E-01 3.513247085E-02
 1.102486858E+00 -2.410218380E-01 3.488148266E-02
 1.091081444E+00 -1.964467637E-01 3.565074087E-02
 1.098911710E+00 -2.044181694E-01 3.553767862E-02
 1.105996854E+00 -2.208338850E-01 3.522626799E-02
 1.106812182E+00 -2.125994726E-01 3.533140115E-02
 8.465754395E-01 -5.000000000E-01 3.159190708E-02
 1.114184171E+00 -2.527327351E-01 3.447784780E-02
 1.114703165E+00 -2.643494146E-01 3.426419472E-02
 1.112614482E+00 -3.210087343E-01 3.357660782E-02
 1.111793350E+00 -3.384534785E-01 3.344547674E-02
 1.103482566E+00 -3.725416309E-01 3.325650801E-02
 1.110249716E+00 -3.559092584E-01 3.333935388E-02
 1.056909751E+00 -4.460836154E-01 3.274650341E-02
 1.080165295E+00 -4.221873902E-01 3.301123874E-02
 1.028545983E+00 -4.706956985E-01 3.219111104E-02
 1.103402438E+00 -3.980775912E-01 3.314063124E-02
 1.027397217E+00 -5.000000000E-01 3.181962852E-02
 1.115833185E+00 -2.765381895E-01 3.406001056E-02
 1.130602838E+00 -3.060217343E-01 3.359642178E-02
 1.131045139E+00 -2.903251596E-01 3.373619530E-02
 1.091135878E+00 -1.818363148E-01 3.558373302E-02
 1.091262311E+00 -1.889810969E-01 3.563082854E-02
 1.072883948E+00 -1.588910107E-01 3.514472888E-02
 1.078441479E+00 -1.641419380E-01 3.531002159E-02
 1.084147064E+00 -1.700167470E-01 3.544225512E-02
 1.090430261E+00 -1.757346334E-01 3.551568835E-02
 1.063823124E+00 -1.541542005E-01 3.490236152E-02
 1.068063237E+00 -1.543507008E-01 3.495620667E-02
 1.060266113E+00 -1.499999695E-01 3.478438130E-02
 1.114181599E+00 -2.304082882E-01 3.489514682E-02
 1.114037424E+00 -2.413492803E-01 3.469781820E-02
 1.098930151E+00 -1.964931587E-01 3.556775123E-02
 1.106975712E+00 -2.043837306E-01 3.540948369E-02
 1.115243697E+00 -2.126141319E-01 3.516032637E-02
 1.114944265E+00 -2.212591583E-01 3.504573329E-02
 1.126693315E+00 -2.634854340E-01 3.412892940E-02
 1.125597492E+00 -2.524283254E-01 3.430230055E-02
 1.130015860E+00 -3.219338899E-01 3.347342001E-02