TITLE     = "fluent21.1.0  build-id: 10179"
VARIABLES = "X"
"Y"
"Velocity Magnitude"
DATASETAUXDATA CFDA.ID1="Pressure"
DATASETAUXDATA CFDA.ID2="Density"
DATASETAUXDATA Common.DensityVar="12"
DATASETAUXDATA Common.PressureVar="3"
DATASETAUXDATA Common.UVar="5"
DATASETAUXDATA Common.VectorVarsAreVelocity="TRUE"
DATASETAUXDATA Common.ViscosityVar="14"
DATASETAUXDATA Common.VVar="7"
ZONE T="sur_out"
 STRANDID=1, SOLUTIONTIME=282.25
 Nodes=14307, Elements=14184, ZONETYPE=FEQuadrilateral
 DATAPACKING=POINT
 FACENEIGHBORCONNECTIONS=1051
 FACENEIGHBORMODE=GLOBALONETOMANY
 DT=(DOUBLE DOUBLE DOUBLE )
 9.063741353E-01 -1.533338230E-01 2.786403337E-02
 9.085549316E-01 -1.499999695E-01 2.771262131E-02
 9.045625610E-01 -1.499999695E-01 2.782526957E-02
 9.113484739E-01 -1.542039737E-01 2.774064947E-02
 9.125473633E-01 -1.499999695E-01 2.761544092E-02
 9.158872510E-01 -1.545530096E-01 2.761868482E-02
 9.165397949E-01 -1.499999695E-01 2.749176148E-02
 9.202813887E-01 -1.546971369E-01 2.750340616E-02
 9.205321655E-01 -1.499999695E-01 2.737634131E-02
 9.153732023E-01 -1.592847587E-01 2.787495472E-02
 9.105860375E-01 -1.589034663E-01 2.799632868E-02
 9.200174968E-01 -1.594914330E-01 2.776080238E-02
 9.246753578E-01 -1.547218036E-01 2.739494399E-02
 9.245245361E-01 -1.499999695E-01 2.726958594E-02
 9.196650126E-01 -1.643875110E-01 2.802238265E-02
 9.149934157E-01 -1.641505016E-01 2.813242555E-02
 9.247319267E-01 -1.595607292E-01 2.765174954E-02
 9.291435651E-01 -1.546135919E-01 2.729178206E-02
 9.285169678E-01 -1.499999695E-01 2.717100933E-02
 9.189842873E-01 -1.693168603E-01 2.827876314E-02
 9.151122900E-01 -1.691581358E-01 2.837538849E-02
 9.246431338E-01 -1.645467493E-01 2.791972822E-02
 9.295641308E-01 -1.594556999E-01 2.754413668E-02
 9.337923174E-01 -1.542675551E-01 2.718981976E-02
 9.325093994E-01 -1.499999695E-01 2.707745701E-02
 9.167942972E-01 -1.739748461E-01 2.858569703E-02
 9.243358033E-01 -1.697051442E-01 2.820043966E-02
 9.298087871E-01 -1.644979192E-01 2.781355617E-02
 9.345369575E-01 -1.591321581E-01 2.743687934E-02
 9.365017700E-01 -1.499999695E-01 2.698389864E-02
 9.389513414E-01 -1.533187119E-01 2.706232820E-02
 9.236803391E-01 -1.752162271E-01 2.850419826E-02
 9.300185846E-01 -1.697216903E-01 2.809308689E-02
 9.349695572E-01 -1.642417479E-01 2.771146079E-02
 9.397825131E-01 -1.585509680E-01 2.734069174E-02
 9.404941406E-01 -1.499999695E-01 2.693692981E-02
 9.303635284E-01 -1.753017109E-01 2.839481577E-02
 9.232161545E-01 -1.818583126E-01 2.883475474E-02
 9.163281153E-01 -1.813740034E-01 2.894152308E-02
 9.355252294E-01 -1.693559242E-01 2.798059607E-02
 9.399633246E-01 -1.639624724E-01 2.762773477E-02
 9.441600496E-01 -1.537686594E-01 2.702411723E-02
 9.456402443E-01 -1.577784576E-01 2.724533882E-02
 9.444865723E-01 -1.499999695E-01 2.692247047E-02
 9.301936990E-01 -1.820288982E-01 2.873605000E-02
 9.375023765E-01 -1.742006914E-01 2.824023443E-02
 9.226345849E-01 -1.887680603E-01 2.917042371E-02
 9.156516954E-01 -1.882958119E-01 2.926215476E-02
 9.395692581E-01 -1.692421958E-01 2.791658831E-02
 9.454886739E-01 -1.637986387E-01 2.757657147E-02
 9.475435346E-01 -1.539670303E-01 2.701039409E-02
 9.484789429E-01 -1.499999695E-01 2.690755128E-02
 9.298106929E-01 -1.890515631E-01 2.909124929E-02
 9.373303169E-01 -1.818673785E-01 2.865040609E-02
 9.146945579E-01 -1.951420841E-01 2.956760531E-02
 9.218328787E-01 -1.958039722E-01 2.949107101E-02
 9.452493199E-01 -1.694314229E-01 2.789250773E-02
 9.511950355E-01 -1.587907318E-01 2.727757698E-02
 9.510647509E-01 -1.640042044E-01 2.755874438E-02
 9.518771220E-01 -1.543079604E-01 2.702902117E-02
 9.524713745E-01 -1.499999695E-01 2.691258639E-02
 9.292868377E-01 -1.962430231E-01 2.943118461E-02
 9.370960359E-01 -1.891317932E-01 2.902505281E-02
 9.447235495E-01 -1.752362476E-01 2.822819884E-02
 9.445091721E-01 -1.820998357E-01 2.859897628E-02
 9.207163849E-01 -2.030311773E-01 2.978264168E-02
 9.148725468E-01 -2.026967259E-01 2.984639737E-02
 9.511988423E-01 -1.694421555E-01 2.786296761E-02
 9.561771036E-01 -1.590482617E-01 2.729317273E-02
 9.563496295E-01 -1.639608538E-01 2.755881716E-02
 9.562857932E-01 -1.544540392E-01 2.704741128E-02
 9.564637451E-01 -1.499999695E-01 2.692966259E-02
 9.368725146E-01 -1.964014959E-01 2.937929082E-02
 9.286355164E-01 -2.037008615E-01 2.975483214E-02
 9.443383146E-01 -1.892000339E-01 2.897999498E-02
 9.516133455E-01 -1.752047448E-01 2.819423220E-02
 9.516099804E-01 -1.820850048E-01 2.856867509E-02
 9.175400052E-01 -2.099185105E-01 3.009091152E-02
 9.568465485E-01 -1.691022408E-01 2.783145823E-02
 9.608675286E-01 -1.589544656E-01 2.731430264E-02
 9.612956248E-01 -1.636571894E-01 2.757138156E-02
 9.606200050E-01 -1.544334409E-01 2.707606218E-02
 9.604561768E-01 -1.499999695E-01 2.696071926E-02
 9.442580699E-01 -1.963791091E-01 2.934216007E-02
 9.368548601E-01 -2.038575609E-01 2.971375843E-02
 9.276997878E-01 -2.116763707E-01 3.007288328E-02
 9.514582129E-01 -1.892047088E-01 2.895972275E-02
 9.588880322E-01 -1.740253153E-01 2.813545166E-02
 9.588240880E-01 -1.818227195E-01 2.856507067E-02
 9.609441486E-01 -1.689537052E-01 2.784175801E-02
 9.653773338E-01 -1.586410441E-01 2.733319351E-02
 9.670170424E-01 -1.627240439E-01 2.758641965E-02
 9.648728507E-01 -1.542952404E-01 2.711685032E-02
 9.644485474E-01 -1.499999695E-01 2.700677204E-02
 9.446877757E-01 -2.035377877E-01 2.966703514E-02
 9.511387018E-01 -1.963991800E-01 2.933382633E-02
 9.372382573E-01 -2.118070106E-01 3.004127852E-02
 9.273936275E-01 -2.212738868E-01 3.038868841E-02
 9.173436780E-01 -2.209147683E-01 3.044014355E-02
 9.587182113E-01 -1.891619236E-01 2.896707196E-02
 9.662120305E-01 -1.750431663E-01 2.823838666E-02
 9.660752234E-01 -1.820083639E-01 2.860914253E-02
 9.667444453E-01 -1.690038490E-01 2.791079225E-02
 9.687604493E-01 -1.585520757E-01 2.738476757E-02
 9.690536032E-01 -1.540762192E-01 2.717613373E-02
 9.684409790E-01 -1.499999695E-01 2.706953970E-02
 9.473418218E-01 -2.103881614E-01 2.998497944E-02
 9.503205897E-01 -2.035624704E-01 2.966978621E-02
 9.585223694E-01 -1.964824224E-01 2.935524772E-02
 9.370974519E-01 -2.213380127E-01 3.036948907E-02
 9.274657950E-01 -2.311744584E-01 3.067857900E-02
 9.174098815E-01 -2.312835999E-01 3.072609801E-02
 9.660488459E-01 -1.891667801E-01 2.900453905E-02
 9.731355162E-01 -1.751248668E-01 2.832388088E-02
 9.732086682E-01 -1.819903500E-01 2.868474829E-02
 9.728042098E-01 -1.692841454E-01 2.800531746E-02
 9.729120411E-01 -1.637297756E-01 2.773028684E-02
 9.736054537E-01 -1.587291759E-01 2.749148142E-02
 9.741509171E-01 -1.534289073E-01 2.725500500E-02
 9.724333496E-01 -1.499999695E-01 2.712460200E-02
 9.470720462E-01 -2.211245157E-01 3.038408161E-02
 9.581385170E-01 -2.039606401E-01 2.972560370E-02
 9.660989304E-01 -1.964433305E-01 2.939604326E-02
 9.367641620E-01 -2.311902646E-01 3.067127107E-02
 9.283813001E-01 -2.409853805E-01 3.092132127E-02
 9.179457012E-01 -2.416575019E-01 3.097752438E-02
 9.732910748E-01 -1.890776735E-01 2.907023359E-02
 9.803246555E-01 -1.741424713E-01 2.840895611E-02
 9.803328513E-01 -1.817290196E-01 2.879204767E-02
 9.784331753E-01 -1.692470078E-01 2.809686934E-02
 9.782331320E-01 -1.641461778E-01 2.785603295E-02
 9.786128642E-01 -1.591705864E-01 2.762717381E-02
 9.792477509E-01 -1.543140108E-01 2.742901409E-02
 9.764257813E-01 -1.499999695E-01 2.720682818E-02
 9.573904399E-01 -2.119090223E-01 3.008722767E-02
 9.467274024E-01 -2.313271992E-01 3.070378793E-02
 9.571384466E-01 -2.214621281E-01 3.044541113E-02
 9.663389475E-01 -2.039076741E-01 2.977892840E-02
 9.734896398E-01 -1.962497895E-01 2.945534188E-02
 9.358775141E-01 -2.409695196E-01 3.091942772E-02
 9.322361904E-01 -2.501400422E-01 3.114383628E-02
 9.191904432E-01 -2.524483661E-01 3.120974116E-02
 9.804112004E-01 -1.889173528E-01 2.916771503E-02
 9.873459249E-01 -1.752232714E-01 2.863214393E-02
 9.873888338E-01 -1.818531253E-01 2.894486392E-02
 9.823758098E-01 -1.693881911E-01 2.821081263E-02
 9.829874433E-01 -1.644041921E-01 2.799346564E-02
 9.833790799E-01 -1.594618640E-01 2.777776341E-02
 9.804181519E-01 -1.499999695E-01 2.734033525E-02
 9.838183274E-01 -1.546364899E-01 2.757889864E-02
 9.669599122E-01 -2.118425983E-01 3.015959341E-02
 9.461642621E-01 -2.415763608E-01 3.097381583E-02
 9.570313596E-01 -2.314700704E-01 3.077148565E-02
 9.671102830E-01 -2.213833227E-01 3.053411190E-02
 9.741710821E-01 -2.034136964E-01 2.981728981E-02
 9.804011012E-01 -1.960898447E-01 2.954554200E-02
 9.068370381E-01 -2.419266309E-01 3.105086450E-02
 9.067628360E-01 -2.530357910E-01 3.127794503E-02
 9.198820597E-01 -2.649852497E-01 3.143333430E-02
 9.327691378E-01 -2.641116002E-01 3.141224151E-02
 9.876159369E-01 -1.887726030E-01 2.930046278E-02
 9.939136069E-01 -1.751529411E-01 2.881812497E-02
 9.942586497E-01 -1.816650765E-01 2.912031330E-02
 9.877585564E-01 -1.697317691E-01 2.837653251E-02
 9.879718604E-01 -1.645903207E-01 2.815074650E-02
 9.881076958E-01 -1.596093971E-01 2.793678781E-02
 9.844105835E-01 -1.499999695E-01 2.748422567E-02
 9.882419429E-01 -1.547528553E-01 2.773437392E-02
 9.770372359E-01 -2.102161902E-01 3.020980811E-02
 9.450411483E-01 -2.522147691E-01 3.121690024E-02
 9.570537168E-01 -2.418094098E-01 3.105025037E-02
 9.673297280E-01 -2.313318819E-01 3.086919856E-02
 9.770854882E-01 -2.209457359E-01 3.065135011E-02
 9.798368819E-01 -2.032983154E-01 2.990007518E-02
 9.878709144E-01 -1.959099152E-01 2.967281767E-02
 9.067203562E-01 -2.653684258E-01 3.149058628E-02
 9.447286606E-01 -2.644611246E-01 3.144518370E-02
 9.343255005E-01 -2.768840028E-01 3.161355412E-02
 9.208962641E-01 -2.780353609E-01 3.163938682E-02
 9.947876259E-01 -1.883931451E-01 2.945604248E-02
 1.000690555E+00 -1.739601030E-01 2.900648034E-02
 1.000926159E+00 -1.812086260E-01 2.931212984E-02
 9.933389181E-01 -1.697106541E-01 2.855489339E-02
 9.930365016E-01 -1.645875971E-01 2.832249942E-02
 9.928402608E-01 -1.596098277E-01 2.810698570E-02
 9.884029541E-01 -1.499999695E-01 2.763591775E-02
 9.926387885E-01 -1.547523025E-01 2.790015582E-02
 9.571221407E-01 -2.527076542E-01 3.129791139E-02
 9.679851611E-01 -2.415025012E-01 3.115305494E-02
 9.773058574E-01 -2.310127290E-01 3.099287112E-02
 9.871328151E-01 -2.115806049E-01 3.043698221E-02
 9.869016203E-01 -2.211811315E-01 3.081982467E-02
 9.877571420E-01 -2.034852459E-01 3.005224383E-02
 9.957147516E-01 -1.952966430E-01 2.982096427E-02
 9.067031130E-01 -2.785026077E-01 3.168534650E-02
 9.572339406E-01 -2.647169730E-01 3.152122764E-02
 9.439883844E-01 -2.768074932E-01 3.163775885E-02
 9.397110436E-01 -2.885719396E-01 3.179903822E-02
 9.227243225E-01 -2.917815427E-01 3.182310584E-02
 1.001551095E+00 -1.878025098E-01 2.960379721E-02
 9.986329747E-01 -1.693362215E-01 2.871148298E-02
 1.007491478E+00 -1.748834593E-01 2.931283342E-02
 1.007192820E+00 -1.813851911E-01 2.954537465E-02
 9.979870857E-01 -1.644108945E-01 2.850022026E-02
 9.975700752E-01 -1.594697491E-01 2.828856889E-02
 9.923953857E-01 -1.499999695E-01 2.779838227E-02
 9.970696896E-01 -1.546364409E-01 2.807821389E-02
 9.692933714E-01 -2.520998592E-01 3.140335903E-02
 9.783001551E-01 -2.407695002E-01 3.125731503E-02
 9.866085367E-01 -2.310306763E-01 3.115327769E-02
 9.968483057E-01 -2.114502816E-01 3.062611900E-02
 9.968185359E-01 -2.211843737E-01 3.102251754E-02
 9.962019609E-01 -2.031574062E-01 3.021502268E-02
 1.004003505E+00 -1.937188692E-01 2.997830984E-02
 9.067015748E-01 -2.926002558E-01 3.186193990E-02
 8.925123049E-01 -2.780349790E-01 3.175739647E-02
 8.935580071E-01 -2.649807093E-01 3.157082773E-02
 9.699907934E-01 -2.643649974E-01 3.162568082E-02
 9.572165011E-01 -2.773098890E-01 3.171675010E-02
 9.407412899E-01 -3.067220843E-01 3.200018311E-02
 9.236165758E-01 -3.079155978E-01 3.199055111E-02
 1.006470294E+00 -1.878372613E-01 2.978811943E-02
 1.002488555E+00 -1.692192670E-01 2.888132954E-02
 1.014157245E+00 -1.748517639E-01 2.959314902E-02
 1.013860520E+00 -1.815634688E-01 2.982045791E-02
 1.007913779E+00 -1.693151555E-01 2.911209341E-02
 1.002689366E+00 -1.642182297E-01 2.869249610E-02
 1.002364226E+00 -1.592009916E-01 2.848519832E-02
 9.963877563E-01 -1.499999695E-01 2.797302535E-02
 1.001666064E+00 -1.543141615E-01 2.826926145E-02
 9.821512810E-01 -2.498188581E-01 3.153308542E-02
 9.857583208E-01 -2.407439126E-01 3.139577299E-02
 9.965617633E-01 -2.312002400E-01 3.135678148E-02
 1.007272098E+00 -2.098788531E-01 3.081866839E-02
 1.007023092E+00 -2.209161968E-01 3.125779233E-02
 1.004499131E+00 -2.023923531E-01 3.036885603E-02
 9.067097124E-01 -3.083706348E-01 3.201900649E-02
 8.906812866E-01 -2.917799313E-01 3.192681370E-02
 8.790728965E-01 -2.768838417E-01 3.183648011E-02
 8.806486945E-01 -2.641027523E-01 3.167614505E-02
 9.826148072E-01 -2.635783643E-01 3.176429627E-02
 9.709297194E-01 -2.770095879E-01 3.182114396E-02
 9.567757205E-01 -2.906645749E-01 3.189238928E-02
 9.243357852E-01 -3.248018454E-01 3.213437797E-02
 9.419928547E-01 -3.239108556E-01 3.214884691E-02
 9.576728538E-01 -3.064869275E-01 3.205527197E-02
 1.013112649E+00 -1.883809612E-01 3.005105653E-02
 1.013771822E+00 -1.691265416E-01 2.937445022E-02
 1.021468092E+00 -1.737549512E-01 2.990212937E-02
 1.020947098E+00 -1.815627078E-01 3.013019723E-02
 1.007889739E+00 -1.640053539E-01 2.891539143E-02
 1.007503466E+00 -1.587769358E-01 2.870817522E-02
 1.000380188E+00 -1.499999695E-01 2.815915292E-02
 1.006827689E+00 -1.534067646E-01 2.848358199E-02
 9.960096374E-01 -2.413572621E-01 3.160400803E-02
 1.006899339E+00 -2.312336484E-01 3.159571236E-02
 1.017452126E+00 -2.118270622E-01 3.119247241E-02
 1.017115003E+00 -2.213667716E-01 3.153832409E-02
 1.010537838E+00 -2.028083718E-01 3.058089084E-02
 1.011786483E+00 -1.952493254E-01 3.030005610E-02
 9.067249671E-01 -3.251146642E-01 3.215264789E-02
 8.898032533E-01 -3.079100332E-01 3.207631376E-02
 8.736865310E-01 -2.885695734E-01 3.201719062E-02
 9.944390389E-01 -2.639962913E-01 3.194686343E-02
 9.948606783E-01 -2.519014778E-01 3.178851349E-02
 9.839669064E-01 -2.760570244E-01 3.193445065E-02
 9.725871000E-01 -2.902282876E-01 3.199461521E-02
 9.594856224E-01 -3.227741688E-01 3.219696070E-02
 9.434661810E-01 -3.413816075E-01 3.226595457E-02
 9.250363948E-01 -3.423088245E-01 3.224972250E-02
 9.737675106E-01 -3.057289841E-01 3.214367991E-02
 1.020312615E+00 -1.888121733E-01 3.035527113E-02
 1.019569441E+00 -1.686170447E-01 2.961489674E-02
 1.013419875E+00 -1.636679744E-01 2.916444014E-02
 1.028728477E+00 -1.752319206E-01 3.030392413E-02
 1.028139050E+00 -1.820969622E-01 3.047238515E-02
 1.012899502E+00 -1.584624384E-01 2.895541755E-02
 1.004372559E+00 -1.499999695E-01 2.831748472E-02
 1.012206376E+00 -1.539245205E-01 2.877147857E-02
 1.006892388E+00 -2.415815950E-01 3.184780749E-02
 1.017205542E+00 -2.312355109E-01 3.185920933E-02
 1.026820200E+00 -2.123498845E-01 3.150740957E-02
 1.026816694E+00 -2.214929710E-01 3.183489334E-02
 1.018613808E+00 -2.037115989E-01 3.087844596E-02
 1.019495427E+00 -1.960691637E-01 3.060091223E-02
 9.067443124E-01 -3.425829471E-01 3.226234342E-02
 8.891142460E-01 -3.247925433E-01 3.220055941E-02
 8.726743515E-01 -3.067092743E-01 3.216598768E-02
 1.006909666E+00 -2.524179407E-01 3.203192381E-02
 1.006889704E+00 -2.643276282E-01 3.216892473E-02
 9.934625401E-01 -2.760862675E-01 3.207529507E-02
 9.888897497E-01 -2.874654172E-01 3.212958136E-02
 9.624079187E-01 -3.395033110E-01 3.231220620E-02
 9.759392371E-01 -3.211722543E-01 3.226197681E-02
 9.444411152E-01 -3.597867272E-01 3.235728321E-02
 9.256142291E-01 -3.604728859E-01 3.234031698E-02
 9.889059610E-01 -3.049446257E-01 3.226475609E-02
 1.027681045E+00 -1.891904668E-01 3.068030656E-02
 1.023938197E+00 -1.685113190E-01 2.986100374E-02
 1.019085204E+00 -1.630263163E-01 2.942176937E-02
 1.035479929E+00 -1.757470189E-01 3.065667126E-02
 1.035189890E+00 -1.823696089E-01 3.082292019E-02
 1.029818721E+00 -1.693054744E-01 3.017294893E-02
 1.018436000E+00 -1.574394115E-01 2.920992236E-02
 1.008364990E+00 -1.499999695E-01 2.847996741E-02
 1.016718391E+00 -1.538039619E-01 2.897833120E-02
 1.012357361E+00 -1.499999695E-01 2.869322360E-02
 1.017811475E+00 -2.413044832E-01 3.211026496E-02
 1.027078813E+00 -2.310351562E-01 3.212871729E-02
 1.026984468E+00 -2.041441943E-01 3.119232713E-02
 1.036061047E+00 -2.119493435E-01 3.181083335E-02
 1.036308844E+00 -2.212337423E-01 3.213061374E-02
 1.027275139E+00 -1.964907914E-01 3.091579146E-02
 9.067655482E-01 -3.606977544E-01 3.234933223E-02
 8.884516377E-01 -3.422963867E-01 3.230144345E-02
 8.714539094E-01 -3.238906114E-01 3.227723429E-02
 1.019079774E+00 -2.518174668E-01 3.229496826E-02
 1.019695309E+00 -2.640126327E-01 3.241798728E-02
 1.006568766E+00 -2.767817507E-01 3.227313047E-02
 9.826511967E-01 -3.352695152E-01 3.239009974E-02
 9.640355210E-01 -3.585531410E-01 3.240215304E-02
 9.879115907E-01 -3.208320950E-01 3.235284290E-02
 9.446452900E-01 -3.787246193E-01 3.242602309E-02
 9.262119695E-01 -3.791015272E-01 3.240971105E-02
 1.005069293E+00 -3.057074201E-01 3.242809737E-02
 1.005526241E+00 -2.900108809E-01 3.235518928E-02
 1.034990972E+00 -1.893434817E-01 3.101294136E-02
 1.024888044E+00 -1.623260025E-01 2.970726536E-02
 1.035867906E+00 -1.697907632E-01 3.050948333E-02
 1.042143948E+00 -1.755737398E-01 3.099275425E-02
 1.042153350E+00 -1.822870006E-01 3.116514968E-02
 1.030737879E+00 -1.636732847E-01 3.006233596E-02
 1.023587639E+00 -1.580366065E-01 2.948547583E-02
 1.019862928E+00 -1.538203832E-01 2.916517378E-02
 1.016349792E+00 -1.499999695E-01 2.890819369E-02
 1.028093704E+00 -2.405739224E-01 3.235058758E-02
 1.036277261E+00 -2.308367923E-01 3.240459063E-02
 1.035242738E+00 -2.040331018E-01 3.149980534E-02
 1.045877857E+00 -2.101843784E-01 3.212184675E-02
 1.046103683E+00 -2.206594954E-01 3.244518350E-02
 1.034947869E+00 -1.965592114E-01 3.123355134E-02
 9.067857807E-01 -3.793345869E-01 3.241683529E-02
 8.879157122E-01 -3.604570803E-01 3.238135932E-02
 8.700191805E-01 -3.413556752E-01 3.236595384E-02
 1.031952759E+00 -2.495068194E-01 3.259101060E-02
 1.032438745E+00 -2.631898499E-01 3.268303567E-02
 1.020415262E+00 -2.766127875E-01 3.250708640E-02
 9.843315031E-01 -3.566799881E-01 3.247766128E-02
 9.649483986E-01 -3.781852835E-01 3.246796808E-02
 1.004192579E+00 -3.218260145E-01 3.248741950E-02
 9.429487128E-01 -3.977789729E-01 3.247007422E-02
 9.277622974E-01 -3.978029262E-01 3.245667039E-02
 1.021597073E+00 -2.899476318E-01 3.257819438E-02
 1.021659273E+00 -3.058968806E-01 3.262326141E-02
 1.042145902E+00 -1.892670184E-01 3.134335843E-02
 1.036390991E+00 -1.642355829E-01 3.037818668E-02
 1.041791684E+00 -1.698544498E-01 3.082598901E-02
 1.049160449E+00 -1.744134297E-01 3.133379218E-02
 1.049140680E+00 -1.819405581E-01 3.150680051E-02
 1.027073125E+00 -1.583287164E-01 2.970503852E-02
 1.031848296E+00 -1.587806037E-01 2.996554223E-02
 1.023938519E+00 -1.540039568E-01 2.937830763E-02
 1.020342163E+00 -1.499999695E-01 2.911362224E-02
 1.035531769E+00 -2.404492309E-01 3.258392664E-02
 1.046259791E+00 -2.306221716E-01 3.270797082E-02
 1.042988800E+00 -2.034855522E-01 3.176573842E-02
 1.055973690E+00 -2.206014222E-01 3.278505230E-02
 1.055680260E+00 -2.114715847E-01 3.253859013E-02
 1.042291016E+00 -1.963813606E-01 3.154193864E-02
 9.068004778E-01 -3.984457815E-01 3.246527002E-02
 8.873592113E-01 -3.790769056E-01 3.244282820E-02
 8.690841358E-01 -3.597593576E-01 3.243547854E-02
 1.044344285E+00 -2.634791002E-01 3.295587446E-02
 1.044669175E+00 -2.514827719E-01 3.293951257E-02
 1.033798499E+00 -2.756601935E-01 3.273486431E-02
 1.002665734E+00 -3.381599278E-01 3.253022471E-02
 1.003879218E+00 -3.561544556E-01 3.257012579E-02
 9.867281156E-01 -3.766466257E-01 3.253667153E-02
 9.643301983E-01 -3.987488889E-01 3.250972476E-02
 1.021131553E+00 -3.224610278E-01 3.264911350E-02
 9.350282856E-01 -4.157873574E-01 3.247868621E-02
 1.038785823E+00 -2.872267166E-01 3.284529317E-02
 1.038829249E+00 -3.053801849E-01 3.283636528E-02
 1.049153346E+00 -1.890904333E-01 3.167360975E-02
 1.037091881E+00 -1.589661002E-01 3.025736139E-02
 1.041873980E+00 -1.644796116E-01 3.067870650E-02
 1.047287922E+00 -1.695766075E-01 3.109114019E-02
 1.056042522E+00 -1.754239693E-01 3.171579241E-02
 1.056108855E+00 -1.819876856E-01 3.185317594E-02
 1.027958339E+00 -1.541201145E-01 2.960801265E-02
 1.032490655E+00 -1.541073531E-01 2.985183584E-02
 1.024334595E+00 -1.499999695E-01 2.932821205E-02
 1.045828857E+00 -2.408699519E-01 3.287299862E-02
 1.056886297E+00 -2.301017832E-01 3.303512419E-02
 1.048555493E+00 -2.033559164E-01 3.202530838E-02
 1.056276938E+00 -2.035330467E-01 3.234254399E-02
 1.065241950E+00 -2.201430435E-01 3.308608312E-02
 1.064593588E+00 -2.115532101E-01 3.287950984E-02
 1.049087521E+00 -1.962346501E-01 3.184788608E-02
 9.068077271E-01 -4.187775542E-01 3.247674845E-02
 8.858366386E-01 -3.977729650E-01 3.248487700E-02
 8.689134970E-01 -3.786995827E-01 3.248712055E-02
 1.056744674E+00 -2.636151208E-01 3.323759850E-02
 1.056592794E+00 -2.520383483E-01 3.324837605E-02
 1.043556267E+00 -2.755225941E-01 3.294805103E-02
 1.019946789E+00 -3.393549145E-01 3.266404357E-02
 1.017854444E+00 -3.566881638E-01 3.266901624E-02
 1.010607883E+00 -3.729733136E-01 3.263881226E-02
 9.869848428E-01 -3.987098325E-01 3.257096123E-02
 9.623207044E-01 -4.201913732E-01 3.251107744E-02
 1.038704166E+00 -3.226216081E-01 3.282597192E-02
 1.056166039E+00 -3.057322725E-01 3.305881300E-02
 1.056148025E+00 -2.896229789E-01 3.312548457E-02
 1.056244605E+00 -1.889629742E-01 3.200925424E-02
 1.037840867E+00 -1.534920315E-01 3.013034704E-02
 1.042299371E+00 -1.593207424E-01 3.054860561E-02
 1.047032075E+00 -1.644912176E-01 3.095395889E-02
 1.051187172E+00 -1.695522735E-01 3.132715580E-02
 1.062354506E+00 -1.755390303E-01 3.203528451E-02
 1.063013012E+00 -1.816560238E-01 3.218950345E-02
 1.056565979E+00 -1.697809450E-01 3.159962990E-02
 1.032319336E+00 -1.499999695E-01 2.978551332E-02
 1.028327026E+00 -1.499999695E-01 2.955283378E-02
 1.056878557E+00 -2.409142160E-01 3.319515062E-02
 1.068463140E+00 -2.282225680E-01 3.338349179E-02
 1.056352823E+00 -1.961344273E-01 3.217040271E-02
 1.064509865E+00 -2.031731251E-01 3.268367496E-02
 1.071920496E+00 -2.201667041E-01 3.335811217E-02
 1.072909576E+00 -2.114014950E-01 3.320440598E-02
 9.068182925E-01 -4.449716623E-01 3.234254666E-02
 9.353019866E-01 -4.443859605E-01 3.234986455E-02
 8.785745141E-01 -4.157589450E-01 3.250621678E-02
 8.706354072E-01 -3.977550713E-01 3.252013404E-02
 1.057296869E+00 -2.756371220E-01 3.319509914E-02
 1.068762050E+00 -2.631930255E-01 3.349961755E-02
 1.068113809E+00 -2.520448856E-01 3.354048289E-02
 1.038129227E+00 -3.400674631E-01 3.280996956E-02
 1.036906240E+00 -3.581489277E-01 3.278783019E-02
 1.010056103E+00 -3.981865934E-01 3.265160784E-02
 9.867248712E-01 -4.211767681E-01 3.256038446E-02
 9.630483123E-01 -4.448957992E-01 3.238339489E-02
 1.056685842E+00 -3.224522660E-01 3.301235845E-02
 1.072977162E+00 -3.053723308E-01 3.327398890E-02
 1.072331383E+00 -2.897856007E-01 3.337176081E-02
 1.063356575E+00 -1.886713248E-01 3.234267695E-02
 1.043017987E+00 -1.543594811E-01 3.044440609E-02
 1.036311768E+00 -1.499999695E-01 2.998885450E-02
 1.047235427E+00 -1.594574017E-01 3.082226839E-02
 1.051757336E+00 -1.644485769E-01 3.121157358E-02
 1.068154472E+00 -1.752695380E-01 3.229913036E-02
 1.070240079E+00 -1.804360437E-01 3.252315047E-02
 1.062213277E+00 -1.698100366E-01 3.189126309E-02
 1.056854319E+00 -1.643569901E-01 3.147416706E-02
 1.068243924E+00 -2.405741461E-01 3.351844920E-02
 1.063790127E+00 -1.958260814E-01 3.250227481E-02
 1.073363753E+00 -2.017777103E-01 3.303829800E-02
 1.081062929E+00 -2.208840087E-01 3.367278346E-02
 1.081706943E+00 -2.120873367E-01 3.354155926E-02
 9.362842762E-01 -4.718369234E-01 3.188611597E-02
 9.068322395E-01 -4.721921314E-01 3.187043006E-02
 8.783224290E-01 -4.443622770E-01 3.235991224E-02
 8.492548181E-01 -3.986902284E-01 3.257543442E-02
 8.486096674E-01 -3.781370358E-01 3.255227704E-02
 1.072735630E+00 -2.736733122E-01 3.350480772E-02
 1.077448897E+00 -2.633745018E-01 3.371145167E-02
 1.078862758E+00 -2.523156789E-01 3.380919683E-02
 1.056943285E+00 -3.401021660E-01 3.296672664E-02
 1.034521531E+00 -3.771907295E-01 3.276569499E-02
 1.057020784E+00 -3.585457711E-01 3.292254706E-02
 1.009040160E+00 -4.215816174E-01 3.262106947E-02
 1.033551693E+00 -3.994435251E-01 3.274593157E-02
 9.884289146E-01 -4.441307982E-01 3.244145135E-02
 9.659882411E-01 -4.707156211E-01 3.193690926E-02
 1.074892355E+00 -3.212620958E-01 3.319938312E-02
 1.088510830E+00 -3.046479872E-01 3.345940776E-02
 1.087453778E+00 -2.904109471E-01 3.358287986E-02
 1.070373036E+00 -1.882503855E-01 3.266188926E-02
 1.047653238E+00 -1.546105356E-01 3.070016221E-02
 1.040304199E+00 -1.499999695E-01 3.017602694E-02
 1.044296631E+00 -1.499999695E-01 3.040276728E-02
 1.051986189E+00 -1.594000755E-01 3.107769754E-02
 1.072318328E+00 -1.753084482E-01 3.253000717E-02
 1.067704976E+00 -1.697946297E-01 3.216385956E-02
 1.062245693E+00 -1.641336856E-01 3.174605047E-02
 1.056889980E+00 -1.590769730E-01 3.132514163E-02
 1.080023031E+00 -2.301271631E-01 3.378223501E-02
 1.079505182E+00 -2.410784080E-01 3.383721128E-02
 1.070921499E+00 -1.953245128E-01 3.279427942E-02
 1.082295915E+00 -2.035468869E-01 3.343339658E-02
 1.090514102E+00 -2.125048606E-01 3.387031271E-02
 1.090571953E+00 -2.211275539E-01 3.399649998E-02
 9.068493652E-01 -5.000000000E-01 3.152506564E-02
 9.369863281E-01 -5.000000000E-01 3.154546471E-02
 8.773708194E-01 -4.718239041E-01 3.188317001E-02
 8.505491460E-01 -4.448394396E-01 3.240372086E-02
 8.512703688E-01 -4.201268575E-01 3.255610217E-02
 1.090375854E+00 -2.526822489E-01 3.406486974E-02
 1.089432930E+00 -2.642825773E-01 3.391901401E-02
 1.075882251E+00 -3.392640091E-01 3.312506879E-02
 1.056980474E+00 -3.781590665E-01 3.288411251E-02
 1.077163551E+00 -3.577008366E-01 3.305637921E-02
 1.032671293E+00 -4.224250763E-01 3.269062199E-02
 1.006503840E+00 -4.444077377E-01 3.247998161E-02
 1.056845323E+00 -3.999011951E-01 3.284534698E-02
 9.973718804E-01 -4.660063752E-01 3.207733047E-02
 9.671232910E-01 -5.000000000E-01 3.160493306E-02
 1.094021447E+00 -3.179296618E-01 3.340261430E-02
 1.087838950E+00 -2.763763113E-01 3.374453987E-02
 1.099575997E+00 -3.047890944E-01 3.359105510E-02
 1.101122420E+00 -2.908057603E-01 3.375457571E-02
 1.076961735E+00 -1.885809825E-01 3.297216281E-02
 1.077351505E+00 -1.817013445E-01 3.288315774E-02
 1.052094662E+00 -1.546194404E-01 3.093819355E-02
 1.048288940E+00 -1.499999695E-01 3.064271555E-02
 1.072828757E+00 -1.698274022E-01 3.242069587E-02
 1.078055266E+00 -1.757042555E-01 3.279415780E-02
 1.067648167E+00 -1.642790885E-01 3.201951481E-02
 1.062276148E+00 -1.580890910E-01 3.157800153E-02
 1.056484262E+00 -1.544677862E-01 3.116491426E-02
 1.090874220E+00 -2.412819354E-01 3.413749709E-02
 1.091056486E+00 -2.303079663E-01 3.410715506E-02
 1.076159081E+00 -1.954438740E-01 3.305812790E-02
 1.083379158E+00 -1.960932913E-01 3.335914447E-02
 1.090718748E+00 -2.042267573E-01 3.376512185E-02
 1.098967275E+00 -2.125792856E-01 3.415860166E-02
 1.099560366E+00 -2.208028080E-01 3.426015301E-02
 8.767124023E-01 -5.000000000E-01 3.153531639E-02
 8.476390871E-01 -4.706840117E-01 3.193179949E-02
 1.102293870E+00 -2.527803547E-01 3.430413432E-02
 1.102053525E+00 -2.646382504E-01 3.413562375E-02
 1.094513569E+00 -3.379403972E-01 3.326674834E-02
 1.079402357E+00 -3.769331040E-01 3.300152185E-02
 1.096350741E+00 -3.560319285E-01 3.317518901E-02
 1.056696868E+00 -4.226624725E-01 3.276960767E-02
 1.031174405E+00 -4.459121601E-01 3.251175374E-02
 1.079970897E+00 -3.992816817E-01 3.294360054E-02
 9.972602539E-01 -5.000000000E-01 3.167184711E-02
 1.101731241E+00 -2.771049952E-01 3.394344171E-02
 1.114624554E+00 -3.056877917E-01 3.369806456E-02
 1.115665899E+00 -2.908430829E-01 3.390258879E-02
 1.084155225E+00 -1.820888189E-01 3.318967844E-02
 1.083945277E+00 -1.889346014E-01 3.328389171E-02
 1.052281372E+00 -1.499999695E-01 3.086875041E-02
 1.072949095E+00 -1.642854259E-01 3.228212250E-02
 1.078363207E+00 -1.699232212E-01 3.268107610E-02
 1.084192721E+00 -1.758860831E-01 3.307684171E-02
 1.067711816E+00 -1.589029504E-01 3.187828060E-02
 1.060710127E+00 -1.541776458E-01 3.135887709E-02
 1.056273804E+00 -1.499999695E-01 3.108555925E-02
 1.102670604E+00 -2.286741012E-01 3.441941614E-02
 1.102486858E+00 -2.410218380E-01 3.440917575E-02
 1.091081444E+00 -1.964467637E-01 3.367801686E-02
 1.098911710E+00 -2.044181694E-01 3.406403568E-02
 1.105996854E+00 -2.208338850E-01 3.447403910E-02
 1.106812182E+00 -2.125994726E-01 3.441211964E-02
 8.465754395E-01 -5.000000000E-01 3.158575893E-02
 1.114184171E+00 -2.527327351E-01 3.451053209E-02
 1.114703165E+00 -2.643494146E-01 3.432435957E-02
 1.112614482E+00 -3.210087343E-01 3.352251680E-02
 1.111793350E+00 -3.384534785E-01 3.337412178E-02
 1.103482566E+00 -3.725416309E-01 3.313091995E-02
 1.110249716E+00 -3.559092584E-01 3.325773810E-02
 1.056909751E+00 -4.460836154E-01 3.257931395E-02
 1.080165295E+00 -4.221873902E-01 3.284895767E-02
 1.028545983E+00 -4.706956985E-01 3.204014996E-02
 1.103402438E+00 -3.980775912E-01 3.303139592E-02
 1.027397217E+00 -5.000000000E-01 3.170144238E-02
 1.115833185E+00 -2.765381895E-01 3.411868652E-02
 1.130602838E+00 -3.060217343E-01 3.379788280E-02
 1.131045139E+00 -2.903251596E-01 3.402277641E-02
 1.091135878E+00 -1.818363148E-01 3.347911338E-02
 1.091262311E+00 -1.889810969E-01 3.359023286E-02
 1.072883948E+00 -1.588910107E-01 3.212520372E-02
 1.078441479E+00 -1.641419380E-01 3.253698070E-02
 1.084147064E+00 -1.700167470E-01 3.294526082E-02
 1.090430261E+00 -1.757346334E-01 3.334312048E-02
 1.063823124E+00 -1.541542005E-01 3.153854634E-02
 1.068063237E+00 -1.543507008E-01 3.174741890E-02
 1.060266113E+00 -1.499999695E-01 3.128797984E-02
 1.114181599E+00 -2.304082882E-01 3.470354619E-02
 1.114037424E+00 -2.413492803E-01 3.464556722E-02
 1.098930151E+00 -1.964931587E-01 3.397652249E-02
 1.106975712E+00 -2.043837306E-01 3.433550621E-02
 1.115243697E+00 -2.126141319E-01 3.464915997E-02
 1.114944265E+00 -2.212591583E-01 3.469569924E-02
 1.126693315E+00 -2.634854340E-01 3.448128304E-02
 1.125597492E+00 -2.524283254E-01 3.467378442E-02
 1.130015860E+00 -3.219338899E-01 3.361125392E-02