TITLE     = "fluent21.1.0  build-id: 10179"
VARIABLES = "X"
"Y"
"Velocity Magnitude"
DATASETAUXDATA CFDA.ID1="Pressure"
DATASETAUXDATA CFDA.ID2="Density"
DATASETAUXDATA Common.DensityVar="12"
DATASETAUXDATA Common.PressureVar="3"
DATASETAUXDATA Common.UVar="5"
DATASETAUXDATA Common.VectorVarsAreVelocity="TRUE"
DATASETAUXDATA Common.ViscosityVar="14"
DATASETAUXDATA Common.VVar="7"
ZONE T="sur_out"
 STRANDID=1, SOLUTIONTIME=37
 Nodes=14307, Elements=14184, ZONETYPE=FEQuadrilateral
 DATAPACKING=POINT
 FACENEIGHBORCONNECTIONS=1051
 FACENEIGHBORMODE=GLOBALONETOMANY
 DT=(DOUBLE DOUBLE DOUBLE )
 9.063741353E-01 -1.533338230E-01 3.105307570E-02
 9.085549316E-01 -1.499999695E-01 3.105096290E-02
 9.045625610E-01 -1.499999695E-01 3.105109048E-02
 9.113484739E-01 -1.542039737E-01 3.105366010E-02
 9.125473633E-01 -1.499999695E-01 3.105125540E-02
 9.158872510E-01 -1.545530096E-01 3.105372693E-02
 9.165397949E-01 -1.499999695E-01 3.105124555E-02
 9.202813887E-01 -1.546971369E-01 3.105352768E-02
 9.205321655E-01 -1.499999695E-01 3.105106838E-02
 9.153732023E-01 -1.592847587E-01 3.105874641E-02
 9.105860375E-01 -1.589034663E-01 3.105868595E-02
 9.200174968E-01 -1.594914330E-01 3.105847980E-02
 9.246753578E-01 -1.547218036E-01 3.105318003E-02
 9.245245361E-01 -1.499999695E-01 3.105077552E-02
 9.196650126E-01 -1.643875110E-01 3.106356880E-02
 9.149934157E-01 -1.641505016E-01 3.106395315E-02
 9.247319267E-01 -1.595607292E-01 3.105803348E-02
 9.291435651E-01 -1.546135919E-01 3.105269836E-02
 9.285169678E-01 -1.499999695E-01 3.105042702E-02
 9.189842873E-01 -1.693168603E-01 3.106862847E-02
 9.151122900E-01 -1.691581358E-01 3.106915962E-02
 9.246431338E-01 -1.645467493E-01 3.106308117E-02
 9.295641308E-01 -1.594556999E-01 3.105738287E-02
 9.337923174E-01 -1.542675551E-01 3.105199965E-02
 9.325093994E-01 -1.499999695E-01 3.104988618E-02
 9.167942972E-01 -1.739748461E-01 3.107423938E-02
 9.243358033E-01 -1.697051442E-01 3.106835131E-02
 9.298087871E-01 -1.644979192E-01 3.106234437E-02
 9.345369575E-01 -1.591321581E-01 3.105649179E-02
 9.365017700E-01 -1.499999695E-01 3.104909958E-02
 9.389513414E-01 -1.533187119E-01 3.105059426E-02
 9.236803391E-01 -1.752162271E-01 3.107413515E-02
 9.300185846E-01 -1.697216903E-01 3.106746474E-02
 9.349695572E-01 -1.642417479E-01 3.106134858E-02
 9.397825131E-01 -1.585509680E-01 3.105539658E-02
 9.404941406E-01 -1.499999695E-01 3.104873052E-02
 9.303635284E-01 -1.753017109E-01 3.107303723E-02
 9.232161545E-01 -1.818583126E-01 3.108080213E-02
 9.163281153E-01 -1.813740034E-01 3.108194710E-02
 9.355252294E-01 -1.693559242E-01 3.106611622E-02
 9.399633246E-01 -1.639624724E-01 3.106033126E-02
 9.441600496E-01 -1.537686594E-01 3.105034890E-02
 9.456402443E-01 -1.577784576E-01 3.105399259E-02
 9.444865723E-01 -1.499999695E-01 3.104865036E-02
 9.301936990E-01 -1.820288982E-01 3.107946437E-02
 9.375023765E-01 -1.742006914E-01 3.107063851E-02
 9.226345849E-01 -1.887680603E-01 3.108795624E-02
 9.156516954E-01 -1.882958119E-01 3.108926002E-02
 9.395692581E-01 -1.692421958E-01 3.106520549E-02
 9.454886739E-01 -1.637986387E-01 3.105946915E-02
 9.475435346E-01 -1.539670303E-01 3.105017764E-02
 9.484789429E-01 -1.499999695E-01 3.104841853E-02
 9.298106929E-01 -1.890515631E-01 3.108641512E-02
 9.373303169E-01 -1.818673785E-01 3.107780416E-02
 9.146945579E-01 -1.951420841E-01 3.109670468E-02
 9.218328787E-01 -1.958039722E-01 3.109520652E-02
 9.452493199E-01 -1.694314229E-01 3.106462155E-02
 9.511950355E-01 -1.587907318E-01 3.105416694E-02
 9.510647509E-01 -1.640042044E-01 3.105875650E-02
 9.518771220E-01 -1.543079604E-01 3.105008924E-02
 9.524713745E-01 -1.499999695E-01 3.104816669E-02
 9.292868377E-01 -1.962430231E-01 3.109352505E-02
 9.370960359E-01 -1.891317932E-01 3.108462708E-02
 9.447235495E-01 -1.752362476E-01 3.107007745E-02
 9.445091721E-01 -1.820998357E-01 3.107623280E-02
 9.207163849E-01 -2.030311773E-01 3.110239270E-02
 9.148725468E-01 -2.026967259E-01 3.110427960E-02
 9.511988423E-01 -1.694421555E-01 3.106358852E-02
 9.561771036E-01 -1.590482617E-01 3.105373056E-02
 9.563496295E-01 -1.639608538E-01 3.105795209E-02
 9.562857932E-01 -1.544540392E-01 3.104973048E-02
 9.564637451E-01 -1.499999695E-01 3.104779489E-02
 9.368725146E-01 -1.964014959E-01 3.109147815E-02
 9.286355164E-01 -2.037008615E-01 3.110082588E-02
 9.443383146E-01 -1.892000339E-01 3.108277078E-02
 9.516133455E-01 -1.752047448E-01 3.106873943E-02
 9.516099804E-01 -1.820850048E-01 3.107461562E-02
 9.175400052E-01 -2.099185105E-01 3.111108530E-02
 9.568465485E-01 -1.691022408E-01 3.106220981E-02
 9.608675286E-01 -1.589544656E-01 3.105295081E-02
 9.612956248E-01 -1.636571894E-01 3.105691405E-02
 9.606200050E-01 -1.544334409E-01 3.104918089E-02
 9.604561768E-01 -1.499999695E-01 3.104730628E-02
 9.442580699E-01 -1.963791091E-01 3.108925724E-02
 9.368548601E-01 -2.038575609E-01 3.109833048E-02
 9.276997878E-01 -2.116763707E-01 3.110882539E-02
 9.514582129E-01 -1.892047088E-01 3.108091184E-02
 9.588880322E-01 -1.740253153E-01 3.106628475E-02
 9.588240880E-01 -1.818227195E-01 3.107281602E-02
 9.609441486E-01 -1.689537052E-01 3.106118792E-02
 9.653773338E-01 -1.586410441E-01 3.105196052E-02
 9.670170424E-01 -1.627240439E-01 3.105527975E-02
 9.648728507E-01 -1.542952404E-01 3.104852915E-02
 9.644485474E-01 -1.499999695E-01 3.104678070E-02
 9.446877757E-01 -2.035377877E-01 3.109541174E-02
 9.511387018E-01 -1.963991800E-01 3.108718424E-02
 9.372382573E-01 -2.118070106E-01 3.110561811E-02
 9.273936275E-01 -2.212738868E-01 3.111779234E-02
 9.173436780E-01 -2.209147683E-01 3.112189692E-02
 9.587182113E-01 -1.891619236E-01 3.107900427E-02
 9.662120305E-01 -1.750431663E-01 3.106555802E-02
 9.660752234E-01 -1.820083639E-01 3.107115450E-02
 9.667444453E-01 -1.690038490E-01 3.106044688E-02
 9.687604493E-01 -1.585520757E-01 3.105131531E-02
 9.690536032E-01 -1.540762192E-01 3.104784024E-02
 9.684409790E-01 -1.499999695E-01 3.104614841E-02
 9.473418218E-01 -2.103881614E-01 3.110075078E-02
 9.503205897E-01 -2.035624704E-01 3.109326587E-02
 9.585223694E-01 -1.964824224E-01 3.108517867E-02
 9.370974519E-01 -2.213380127E-01 3.111388023E-02
 9.274657950E-01 -2.311744584E-01 3.112704859E-02
 9.174098815E-01 -2.312835999E-01 3.113194355E-02
 9.660488459E-01 -1.891667801E-01 3.107707232E-02
 9.731355162E-01 -1.751248668E-01 3.106422877E-02
 9.732086682E-01 -1.819903500E-01 3.106949863E-02
 9.728042098E-01 -1.692841454E-01 3.105947530E-02
 9.729120411E-01 -1.637297756E-01 3.105506584E-02
 9.736054537E-01 -1.587291759E-01 3.105092263E-02
 9.741509171E-01 -1.534289073E-01 3.104670266E-02
 9.724333496E-01 -1.499999695E-01 3.104534164E-02
 9.470720462E-01 -2.211245157E-01 3.110985459E-02
 9.581385170E-01 -2.039606401E-01 3.109145655E-02
 9.660989304E-01 -1.964433305E-01 3.108298316E-02
 9.367641620E-01 -2.311902646E-01 3.112269969E-02
 9.283813001E-01 -2.409853805E-01 3.113573717E-02
 9.179457012E-01 -2.416575019E-01 3.114183071E-02
 9.732910748E-01 -1.890776735E-01 3.107511876E-02
 9.803246555E-01 -1.741424713E-01 3.106198312E-02
 9.803328513E-01 -1.817290196E-01 3.106771171E-02
 9.784331753E-01 -1.692470078E-01 3.105837066E-02
 9.782331320E-01 -1.641461778E-01 3.105447106E-02
 9.786128642E-01 -1.591705864E-01 3.105048213E-02
 9.792477509E-01 -1.543140108E-01 3.104667656E-02
 9.764257813E-01 -1.499999695E-01 3.104497058E-02
 9.573904399E-01 -2.119090223E-01 3.109830035E-02
 9.467274024E-01 -2.313271992E-01 3.111849762E-02
 9.571384466E-01 -2.214621281E-01 3.110598468E-02
 9.663389475E-01 -2.039076741E-01 3.108885240E-02
 9.734896398E-01 -1.962497895E-01 3.108067605E-02
 9.358775141E-01 -2.409695196E-01 3.113130272E-02
 9.322361904E-01 -2.501400422E-01 3.114239018E-02
 9.191904432E-01 -2.524483661E-01 3.115194400E-02
 9.804112004E-01 -1.889173528E-01 3.107313357E-02
 9.873459249E-01 -1.752232714E-01 3.106120944E-02
 9.873888338E-01 -1.818531253E-01 3.106603427E-02
 9.823758098E-01 -1.693881911E-01 3.105758644E-02
 9.829874433E-01 -1.644041921E-01 3.105380725E-02
 9.833790799E-01 -1.594618640E-01 3.104999371E-02
 9.804181519E-01 -1.499999695E-01 3.104485812E-02
 9.838183274E-01 -1.546364899E-01 3.104627778E-02
 9.669599122E-01 -2.118425983E-01 3.109504650E-02
 9.461642621E-01 -2.415763608E-01 3.112741274E-02
 9.570313596E-01 -2.314700704E-01 3.111410042E-02
 9.671102830E-01 -2.213833227E-01 3.110209210E-02
 9.741710821E-01 -2.034136964E-01 3.108594454E-02
 9.804011012E-01 -1.960898447E-01 3.107849382E-02
 9.068370381E-01 -2.419266309E-01 3.114801492E-02
 9.067628360E-01 -2.530357910E-01 3.115962927E-02
 9.198820597E-01 -2.649852497E-01 3.116271734E-02
 9.327691378E-01 -2.641116002E-01 3.115415039E-02
 9.876159369E-01 -1.887726030E-01 3.107114568E-02
 9.939136069E-01 -1.751529411E-01 3.105979080E-02
 9.942586497E-01 -1.816650765E-01 3.106428676E-02
 9.877585564E-01 -1.697317691E-01 3.105696209E-02
 9.879718604E-01 -1.645903207E-01 3.105307676E-02
 9.881076958E-01 -1.596093971E-01 3.104933727E-02
 9.844105835E-01 -1.499999695E-01 3.104444788E-02
 9.882419429E-01 -1.547528553E-01 3.104571681E-02
 9.770372359E-01 -2.102161902E-01 3.109035656E-02
 9.450411483E-01 -2.522147691E-01 3.113698046E-02
 9.570537168E-01 -2.418094098E-01 3.112238289E-02
 9.673297280E-01 -2.313318819E-01 3.110962408E-02
 9.770854882E-01 -2.209457359E-01 3.109810746E-02
 9.798368819E-01 -2.032983154E-01 3.108375346E-02
 9.878709144E-01 -1.959099152E-01 3.107630160E-02
 9.067203562E-01 -2.653684258E-01 3.117171271E-02
 9.447286606E-01 -2.644611246E-01 3.114692442E-02
 9.343255005E-01 -2.768840028E-01 3.116407158E-02
 9.208962641E-01 -2.780353609E-01 3.117405180E-02
 9.947876259E-01 -1.883931451E-01 3.106901295E-02
 1.000690555E+00 -1.739601030E-01 3.105748717E-02
 1.000926159E+00 -1.812086260E-01 3.106243113E-02
 9.933389181E-01 -1.697106541E-01 3.105585134E-02
 9.930365016E-01 -1.645875971E-01 3.105217303E-02
 9.928402608E-01 -1.596098277E-01 3.104856622E-02
 9.884029541E-01 -1.499999695E-01 3.104392426E-02
 9.926387885E-01 -1.547523025E-01 3.104506358E-02
 9.571221407E-01 -2.527076542E-01 3.113109194E-02
 9.679851611E-01 -2.415025012E-01 3.111707663E-02
 9.773058574E-01 -2.310127290E-01 3.110526677E-02
 9.871328151E-01 -2.115806049E-01 3.108777504E-02
 9.869016203E-01 -2.211811315E-01 3.109443432E-02
 9.877571420E-01 -2.034852459E-01 3.108174311E-02
 9.957147516E-01 -1.952966430E-01 3.107377245E-02
 9.067031130E-01 -2.785026077E-01 3.118450516E-02
 9.572339406E-01 -2.647169730E-01 3.114012958E-02
 9.439883844E-01 -2.768074932E-01 3.115660632E-02
 9.397110436E-01 -2.885719396E-01 3.117044294E-02
 9.227243225E-01 -2.917815427E-01 3.118553899E-02
 1.001551095E+00 -1.878025098E-01 3.106681036E-02
 9.986329747E-01 -1.693362215E-01 3.105448746E-02
 1.007491478E+00 -1.748834593E-01 3.105654654E-02
 1.007192820E+00 -1.813851911E-01 3.106089872E-02
 9.979870857E-01 -1.644108945E-01 3.105112831E-02
 9.975700752E-01 -1.594697491E-01 3.104766840E-02
 9.923953857E-01 -1.499999695E-01 3.104332862E-02
 9.970696896E-01 -1.546364409E-01 3.104432891E-02
 9.692933714E-01 -2.520998592E-01 3.112466397E-02
 9.783001551E-01 -2.407695002E-01 3.111188611E-02
 9.866085367E-01 -2.310306763E-01 3.110135478E-02
 9.968483057E-01 -2.114502816E-01 3.108457483E-02
 9.968185359E-01 -2.211843737E-01 3.109085077E-02
 9.962019609E-01 -2.031574062E-01 3.107892259E-02
 1.004003505E+00 -1.937188692E-01 3.107039524E-02
 9.067015748E-01 -2.926002558E-01 3.119828674E-02
 8.925123049E-01 -2.780349790E-01 3.119468847E-02
 8.935580071E-01 -2.649807093E-01 3.118019668E-02
 9.699907934E-01 -2.643649974E-01 3.113278314E-02
 9.572165011E-01 -2.773098890E-01 3.114974609E-02
 9.407412899E-01 -3.067220843E-01 3.118331569E-02
 9.236165758E-01 -3.079155978E-01 3.119739681E-02
 1.006470294E+00 -1.878372613E-01 3.106533145E-02
 1.002488555E+00 -1.692192670E-01 3.105348989E-02
 1.014157245E+00 -1.748517639E-01 3.105511462E-02
 1.013860520E+00 -1.815634688E-01 3.105948006E-02
 1.007913779E+00 -1.693151555E-01 3.105262511E-02
 1.002689366E+00 -1.642182297E-01 3.105008666E-02
 1.002364226E+00 -1.592009916E-01 3.104663867E-02
 9.963877563E-01 -1.499999695E-01 3.104270117E-02
 1.001666064E+00 -1.543141615E-01 3.104342880E-02
 9.821512810E-01 -2.498188581E-01 3.111672865E-02
 9.857583208E-01 -2.407439126E-01 3.110802623E-02
 9.965617633E-01 -2.312002400E-01 3.109759239E-02
 1.007272098E+00 -2.098788531E-01 3.108017783E-02
 1.007023092E+00 -2.209161968E-01 3.108717350E-02
 1.004499131E+00 -2.023923531E-01 3.107596190E-02
 9.067097124E-01 -3.083706348E-01 3.121205036E-02
 8.906812866E-01 -2.917799313E-01 3.121056648E-02
 8.790728965E-01 -2.768838417E-01 3.120270303E-02
 8.806486945E-01 -2.641027523E-01 3.118847331E-02
 9.826148072E-01 -2.635783643E-01 3.112571893E-02
 9.709297194E-01 -2.770095879E-01 3.114133468E-02
 9.567757205E-01 -2.906645749E-01 3.116016964E-02
 9.243357852E-01 -3.248018454E-01 3.121016171E-02
 9.419928547E-01 -3.239108556E-01 3.119461100E-02
 9.576728538E-01 -3.064869275E-01 3.117045283E-02
 1.013112649E+00 -1.883809612E-01 3.106420027E-02
 1.013771822E+00 -1.691265416E-01 3.105128733E-02
 1.021468092E+00 -1.737549512E-01 3.105286180E-02
 1.020947098E+00 -1.815627078E-01 3.105790498E-02
 1.007889739E+00 -1.640053539E-01 3.104899777E-02
 1.007503466E+00 -1.587769358E-01 3.104552367E-02
 1.000380188E+00 -1.499999695E-01 3.104193275E-02
 1.006827689E+00 -1.534067646E-01 3.104202250E-02
 9.960096374E-01 -2.413572621E-01 3.110453076E-02
 1.006899339E+00 -2.312336484E-01 3.109363709E-02
 1.017452126E+00 -2.118270622E-01 3.107795641E-02
 1.017115003E+00 -2.213667716E-01 3.108380057E-02
 1.010537838E+00 -2.028083718E-01 3.107403795E-02
 1.011786483E+00 -1.952493254E-01 3.106906781E-02
 9.067249671E-01 -3.251146642E-01 3.122630137E-02
 8.898032533E-01 -3.079100332E-01 3.122667192E-02
 8.736865310E-01 -2.885695734E-01 3.122220312E-02
 9.944390389E-01 -2.639962913E-01 3.111966934E-02
 9.948606783E-01 -2.519014778E-01 3.111195626E-02
 9.839669064E-01 -2.760570244E-01 3.113332540E-02
 9.725871000E-01 -2.902282876E-01 3.114999682E-02
 9.594856224E-01 -3.227741688E-01 3.118010585E-02
 9.434661810E-01 -3.413816075E-01 3.120564013E-02
 9.250363948E-01 -3.423088245E-01 3.122302723E-02
 9.737675106E-01 -3.057289841E-01 3.115882868E-02
 1.020312615E+00 -1.888121733E-01 3.106267019E-02
 1.019569441E+00 -1.686170447E-01 3.104974523E-02
 1.013419875E+00 -1.636679744E-01 3.104773533E-02
 1.028728477E+00 -1.752319206E-01 3.105209879E-02
 1.028139050E+00 -1.820969622E-01 3.105644738E-02
 1.012899502E+00 -1.584624384E-01 3.104438445E-02
 1.004372559E+00 -1.499999695E-01 3.104100502E-02
 1.012206376E+00 -1.539245205E-01 3.104146301E-02
 1.006892388E+00 -2.415815950E-01 3.110009625E-02
 1.017205542E+00 -2.312355109E-01 3.108970276E-02
 1.026820200E+00 -2.123498845E-01 3.107529663E-02
 1.026816694E+00 -2.214929710E-01 3.108055433E-02
 1.018613808E+00 -2.037115989E-01 3.107252886E-02
 1.019495427E+00 -1.960691637E-01 3.106750481E-02
 9.067443124E-01 -3.425829471E-01 3.124098603E-02
 8.891142460E-01 -3.247925433E-01 3.124299341E-02
 8.726743515E-01 -3.067092743E-01 3.124207895E-02
 1.006909666E+00 -2.524179407E-01 3.110685309E-02
 1.006889704E+00 -2.643276282E-01 3.111388966E-02
 9.934625401E-01 -2.760862675E-01 3.112726232E-02
 9.888897497E-01 -2.874654172E-01 3.113816367E-02
 9.624079187E-01 -3.395033110E-01 3.118901928E-02
 9.759392371E-01 -3.211722543E-01 3.116715362E-02
 9.444411152E-01 -3.597867272E-01 3.121666807E-02
 9.256142291E-01 -3.604728859E-01 3.123539524E-02
 9.889059610E-01 -3.049446257E-01 3.114838025E-02
 1.027681045E+00 -1.891904668E-01 3.106099948E-02
 1.023938197E+00 -1.685113190E-01 3.104872772E-02
 1.019085204E+00 -1.630263163E-01 3.104634722E-02
 1.035479929E+00 -1.757470189E-01 3.105093651E-02
 1.035189890E+00 -1.823696089E-01 3.105495907E-02
 1.029818721E+00 -1.693054744E-01 3.104810678E-02
 1.018436000E+00 -1.574394115E-01 3.104280261E-02
 1.008364990E+00 -1.499999695E-01 3.104049644E-02
 1.016718391E+00 -1.538039619E-01 3.104063971E-02
 1.012357361E+00 -1.499999695E-01 3.104013844E-02
 1.017811475E+00 -2.413044832E-01 3.109546124E-02
 1.027078813E+00 -2.310351562E-01 3.108593345E-02
 1.026984468E+00 -2.041441943E-01 3.107034567E-02
 1.036061047E+00 -2.119493435E-01 3.107223245E-02
 1.036308844E+00 -2.212337423E-01 3.107713078E-02
 1.027275139E+00 -1.964907914E-01 3.106563058E-02
 9.067655482E-01 -3.606977544E-01 3.125516706E-02
 8.884516377E-01 -3.422963867E-01 3.125970126E-02
 8.714539094E-01 -3.238906114E-01 3.126042571E-02
 1.019079774E+00 -2.518174668E-01 3.110130242E-02
 1.019695309E+00 -2.640126327E-01 3.110761115E-02
 1.006568766E+00 -2.767817507E-01 3.112150121E-02
 9.826511967E-01 -3.352695152E-01 3.117071083E-02
 9.640355210E-01 -3.585531410E-01 3.119844725E-02
 9.879115907E-01 -3.208320950E-01 3.115718348E-02
 9.446452900E-01 -3.787246193E-01 3.122810394E-02
 9.262119695E-01 -3.791015272E-01 3.124764351E-02
 1.005069293E+00 -3.057074201E-01 3.113873172E-02
 1.005526241E+00 -2.900108809E-01 3.112995518E-02
 1.034990972E+00 -1.893434817E-01 3.105921495E-02
 1.024888044E+00 -1.623260025E-01 3.104476408E-02
 1.035867906E+00 -1.697907632E-01 3.104721922E-02
 1.042143948E+00 -1.755737398E-01 3.104938723E-02
 1.042153350E+00 -1.822870006E-01 3.105321500E-02
 1.030737879E+00 -1.636732847E-01 3.104447213E-02
 1.023587639E+00 -1.580366065E-01 3.104216900E-02
 1.019862928E+00 -1.538203832E-01 3.104005269E-02
 1.016349792E+00 -1.499999695E-01 3.103947747E-02
 1.028093704E+00 -2.405739224E-01 3.109099550E-02
 1.036277261E+00 -2.308367923E-01 3.108239839E-02
 1.035242738E+00 -2.040331018E-01 3.106783334E-02
 1.045877857E+00 -2.101843784E-01 3.106823413E-02
 1.046103683E+00 -2.206594954E-01 3.107369649E-02
 1.034947869E+00 -1.965592114E-01 3.106355559E-02
 9.067857807E-01 -3.793345869E-01 3.126926229E-02
 8.879157122E-01 -3.604570803E-01 3.127577175E-02
 8.700191805E-01 -3.413556752E-01 3.127929784E-02
 1.031952759E+00 -2.495068194E-01 3.109452352E-02
 1.032438745E+00 -2.631898499E-01 3.110151554E-02
 1.020415262E+00 -2.766127875E-01 3.111437132E-02
 9.843315031E-01 -3.566799881E-01 3.118121501E-02
 9.649483986E-01 -3.781852835E-01 3.120900606E-02
 1.004192579E+00 -3.218260145E-01 3.114797618E-02
 9.429487128E-01 -3.977789729E-01 3.123371579E-02
 9.277622974E-01 -3.978029262E-01 3.125377933E-02
 1.021597073E+00 -2.899476318E-01 3.112143995E-02
 1.021659273E+00 -3.058968806E-01 3.112908998E-02
 1.042145902E+00 -1.892670184E-01 3.105733038E-02
 1.036390991E+00 -1.642355829E-01 3.104374326E-02
 1.041791684E+00 -1.698544498E-01 3.104599608E-02
 1.049160449E+00 -1.744134297E-01 3.104716448E-02
 1.049140680E+00 -1.819405581E-01 3.105141695E-02
 1.027073125E+00 -1.583287164E-01 3.104166682E-02
 1.031848296E+00 -1.587806037E-01 3.104117364E-02
 1.023938519E+00 -1.540039568E-01 3.103958398E-02
 1.020342163E+00 -1.499999695E-01 3.103886684E-02
 1.035531769E+00 -2.404492309E-01 3.108757478E-02
 1.046259791E+00 -2.306221716E-01 3.107883622E-02
 1.042988800E+00 -2.034855522E-01 3.106525028E-02
 1.055973690E+00 -2.206014222E-01 3.107040653E-02
 1.055680260E+00 -2.114715847E-01 3.106583830E-02
 1.042291016E+00 -1.963813606E-01 3.106142352E-02
 9.068004778E-01 -3.984457815E-01 3.127716118E-02
 8.873592113E-01 -3.790769056E-01 3.129150181E-02
 8.690841358E-01 -3.597593576E-01 3.129751551E-02
 1.044344285E+00 -2.634791002E-01 3.109619398E-02
 1.044669175E+00 -2.514827719E-01 3.109019625E-02
 1.033798499E+00 -2.756601935E-01 3.110748048E-02
 1.002665734E+00 -3.381599278E-01 3.115759168E-02
 1.003879218E+00 -3.561544556E-01 3.116617112E-02
 9.867281156E-01 -3.766466257E-01 3.118979858E-02
 9.643301983E-01 -3.987488889E-01 3.121323790E-02
 1.021131553E+00 -3.224610278E-01 3.113749726E-02
 9.350282856E-01 -4.157873574E-01 3.122040397E-02
 1.038785823E+00 -2.872267166E-01 3.111108367E-02
 1.038829249E+00 -3.053801849E-01 3.111952627E-02
 1.049153346E+00 -1.890904333E-01 3.105544242E-02
 1.037091881E+00 -1.589661002E-01 3.104041059E-02
 1.041873980E+00 -1.644796116E-01 3.104280024E-02
 1.047287922E+00 -1.695766075E-01 3.104464935E-02
 1.056042522E+00 -1.754239693E-01 3.104615575E-02
 1.056108855E+00 -1.819876856E-01 3.104974625E-02
 1.027958339E+00 -1.541201145E-01 3.103899396E-02
 1.032490655E+00 -1.541073531E-01 3.103827421E-02
 1.024334595E+00 -1.499999695E-01 3.103828677E-02
 1.045828857E+00 -2.408699519E-01 3.108428428E-02
 1.056886297E+00 -2.301017832E-01 3.107501928E-02
 1.048555493E+00 -2.033559164E-01 3.106330517E-02
 1.056276938E+00 -2.035330467E-01 3.106147037E-02
 1.065241950E+00 -2.201430435E-01 3.106731578E-02
 1.064593588E+00 -2.115532101E-01 3.106320774E-02
 1.049087521E+00 -1.962346501E-01 3.105942600E-02
 9.068077271E-01 -4.187775542E-01 3.124714604E-02
 8.858366386E-01 -3.977729650E-01 3.130089091E-02
 8.689134970E-01 -3.786995827E-01 3.131504750E-02
 1.056744674E+00 -2.636151208E-01 3.109116550E-02
 1.056592794E+00 -2.520383483E-01 3.108581024E-02
 1.043556267E+00 -2.755225941E-01 3.110207369E-02
 1.019946789E+00 -3.393549145E-01 3.114628309E-02
 1.017854444E+00 -3.566881638E-01 3.115482749E-02
 1.010607883E+00 -3.729733136E-01 3.116898863E-02
 9.869848428E-01 -3.987098325E-01 3.119193440E-02
 9.623207044E-01 -4.201913732E-01 3.118466024E-02
 1.038704166E+00 -3.226216081E-01 3.112727195E-02
 1.056166039E+00 -3.057322725E-01 3.111052033E-02
 1.056148025E+00 -2.896229789E-01 3.110356753E-02
 1.056244605E+00 -1.889629742E-01 3.105356184E-02
 1.037840867E+00 -1.534920315E-01 3.103701982E-02
 1.042299371E+00 -1.593207424E-01 3.103963350E-02
 1.047032075E+00 -1.644912176E-01 3.104177714E-02
 1.051187172E+00 -1.695522735E-01 3.104369408E-02
 1.062354506E+00 -1.755390303E-01 3.104479936E-02
 1.063013012E+00 -1.816560238E-01 3.104802143E-02
 1.056565979E+00 -1.697809450E-01 3.104284828E-02
 1.032319336E+00 -1.499999695E-01 3.103693974E-02
 1.028327026E+00 -1.499999695E-01 3.103767556E-02
 1.056878557E+00 -2.409142160E-01 3.108018279E-02
 1.068463140E+00 -2.282225680E-01 3.107027005E-02
 1.056352823E+00 -1.961344273E-01 3.105746676E-02
 1.064509865E+00 -2.031731251E-01 3.105904861E-02
 1.071920496E+00 -2.201667041E-01 3.106493353E-02
 1.072909576E+00 -2.114014950E-01 3.106071149E-02
 9.068182925E-01 -4.449716623E-01 3.109261333E-02
 9.353019866E-01 -4.443859605E-01 3.106871530E-02
 8.785745141E-01 -4.157589450E-01 3.129009032E-02
 8.706354072E-01 -3.977550713E-01 3.132591081E-02
 1.057296869E+00 -2.756371220E-01 3.109676929E-02
 1.068762050E+00 -2.631930255E-01 3.108618820E-02
 1.068113809E+00 -2.520448856E-01 3.108147019E-02
 1.038129227E+00 -3.400674631E-01 3.113534290E-02
 1.036906240E+00 -3.581489277E-01 3.114412555E-02
 1.010056103E+00 -3.981865934E-01 3.117292951E-02
 9.867248712E-01 -4.211767681E-01 3.116270958E-02
 9.630483123E-01 -4.448957992E-01 3.105190371E-02
 1.056685842E+00 -3.224522660E-01 3.111718154E-02
 1.072977162E+00 -3.053723308E-01 3.110219542E-02
 1.072331383E+00 -2.897856007E-01 3.109638030E-02
 1.063356575E+00 -1.886713248E-01 3.105161937E-02
 1.043017987E+00 -1.543594811E-01 3.103661401E-02
 1.036311768E+00 -1.499999695E-01 3.103604433E-02
 1.047235427E+00 -1.594574017E-01 3.103882144E-02
 1.051757336E+00 -1.644485769E-01 3.104077610E-02
 1.068154472E+00 -1.752695380E-01 3.104334824E-02
 1.070240079E+00 -1.804360437E-01 3.104572026E-02
 1.062213277E+00 -1.698100366E-01 3.104170497E-02
 1.056854319E+00 -1.643569901E-01 3.103971822E-02
 1.068243924E+00 -2.405741461E-01 3.107608597E-02
 1.063790127E+00 -1.958260814E-01 3.105533444E-02
 1.073363753E+00 -2.017777103E-01 3.105592841E-02
 1.081062929E+00 -2.208840087E-01 3.106275999E-02
 1.081706943E+00 -2.120873367E-01 3.105849095E-02
 9.362842762E-01 -4.718369234E-01 3.085109700E-02
 9.068322395E-01 -4.721921314E-01 3.085470280E-02
 8.783224290E-01 -4.443622770E-01 3.112350655E-02
 8.492548181E-01 -3.986902284E-01 3.135485986E-02
 8.486096674E-01 -3.781370358E-01 3.134180576E-02
 1.072735630E+00 -2.736733122E-01 3.108920981E-02
 1.077448897E+00 -2.633745018E-01 3.108230373E-02
 1.078862758E+00 -2.523156789E-01 3.107746910E-02
 1.056943285E+00 -3.401021660E-01 3.112416987E-02
 1.034521531E+00 -3.771907295E-01 3.115332161E-02
 1.057020784E+00 -3.585457711E-01 3.113155211E-02
 1.009040160E+00 -4.215816174E-01 3.114339851E-02
 1.033551693E+00 -3.994435251E-01 3.115526754E-02
 9.884289146E-01 -4.441307982E-01 3.105057145E-02
 9.659882411E-01 -4.707156211E-01 3.085705179E-02
 1.074892355E+00 -3.212620958E-01 3.110741342E-02
 1.088510830E+00 -3.046479872E-01 3.109483692E-02
 1.087453778E+00 -2.904109471E-01 3.108996016E-02
 1.070373036E+00 -1.882503855E-01 3.104974453E-02
 1.047653238E+00 -1.546105356E-01 3.103594538E-02
 1.040304199E+00 -1.499999695E-01 3.103551956E-02
 1.044296631E+00 -1.499999695E-01 3.103516611E-02
 1.051986189E+00 -1.594000755E-01 3.103790024E-02
 1.072318328E+00 -1.753084482E-01 3.104232367E-02
 1.067704976E+00 -1.697946297E-01 3.104052567E-02
 1.062245693E+00 -1.641336856E-01 3.103859356E-02
 1.056889980E+00 -1.590769730E-01 3.103683381E-02
 1.080023031E+00 -2.301271631E-01 3.106728780E-02
 1.079505182E+00 -2.410784080E-01 3.107229312E-02
 1.070921499E+00 -1.953245128E-01 3.105323064E-02
 1.082295915E+00 -2.035468869E-01 3.105430466E-02
 1.090514102E+00 -2.125048606E-01 3.105626373E-02
 1.090571953E+00 -2.211275539E-01 3.106005190E-02
 9.068493652E-01 -5.000000000E-01 3.074048085E-02
 9.369863281E-01 -5.000000000E-01 3.074980861E-02
 8.773708194E-01 -4.718239041E-01 3.086515855E-02
 8.505491460E-01 -4.448394396E-01 3.116597931E-02
 8.512703688E-01 -4.201268575E-01 3.132330056E-02
 1.090375854E+00 -2.526822489E-01 3.107355871E-02
 1.089432930E+00 -2.642825773E-01 3.107856855E-02
 1.075882251E+00 -3.392640091E-01 3.111331238E-02
 1.056980474E+00 -3.781590665E-01 3.113866105E-02
 1.077163551E+00 -3.577008366E-01 3.111951037E-02
 1.032671293E+00 -4.224250763E-01 3.112362804E-02
 1.006503840E+00 -4.444077377E-01 3.103642122E-02
 1.056845323E+00 -3.999011951E-01 3.113874354E-02
 9.973718804E-01 -4.660063752E-01 3.088648191E-02
 9.671232910E-01 -5.000000000E-01 3.076747806E-02
 1.094021447E+00 -3.179296618E-01 3.109684909E-02
 1.087838950E+00 -2.763763113E-01 3.108404807E-02
 1.099575997E+00 -3.047890944E-01 3.108922875E-02
 1.101122420E+00 -2.908057603E-01 3.108425511E-02
 1.076961735E+00 -1.885809825E-01 3.104820630E-02
 1.077351505E+00 -1.817013445E-01 3.104465114E-02
 1.052094662E+00 -1.546194404E-01 3.103517250E-02
 1.048288940E+00 -1.499999695E-01 3.103453159E-02
 1.072828757E+00 -1.698274022E-01 3.103944025E-02
 1.078055266E+00 -1.757042555E-01 3.104141707E-02
 1.067648167E+00 -1.642790885E-01 3.103754670E-02
 1.062276148E+00 -1.580890910E-01 3.103532063E-02
 1.056484262E+00 -1.544677862E-01 3.103428576E-02
 1.090874220E+00 -2.412819354E-01 3.106858399E-02
 1.091056486E+00 -2.303079663E-01 3.106401244E-02
 1.076159081E+00 -1.954438740E-01 3.105174827E-02
 1.083379158E+00 -1.960932913E-01 3.105041398E-02
 1.090718748E+00 -2.042267573E-01 3.105239692E-02
 1.098967275E+00 -2.125792856E-01 3.105395495E-02
 1.099560366E+00 -2.208028080E-01 3.105731687E-02
 8.767124023E-01 -5.000000000E-01 3.073492349E-02
 8.476390871E-01 -4.706840117E-01 3.089057030E-02
 1.102293870E+00 -2.527803547E-01 3.106950210E-02
 1.102053525E+00 -2.646382504E-01 3.107405891E-02
 1.094513569E+00 -3.379403972E-01 3.110342024E-02
 1.079402357E+00 -3.769331040E-01 3.112471985E-02
 1.096350741E+00 -3.560319285E-01 3.110877934E-02
 1.056696868E+00 -4.226624725E-01 3.110750918E-02
 1.031174405E+00 -4.459121601E-01 3.100831655E-02
 1.079970897E+00 -3.992816817E-01 3.112401203E-02
 9.972602539E-01 -5.000000000E-01 3.078491627E-02
 1.101731241E+00 -2.771049952E-01 3.107891547E-02
 1.114624554E+00 -3.056877917E-01 3.108377364E-02
 1.115665899E+00 -2.908430829E-01 3.107851101E-02
 1.084155225E+00 -1.820888189E-01 3.104330178E-02
 1.083945277E+00 -1.889346014E-01 3.104673663E-02
 1.052281372E+00 -1.499999695E-01 3.103382877E-02
 1.072949095E+00 -1.642854259E-01 3.103650127E-02
 1.078363207E+00 -1.699232212E-01 3.103837352E-02
 1.084192721E+00 -1.758860831E-01 3.104019180E-02
 1.067711816E+00 -1.589029504E-01 3.103470959E-02
 1.060710127E+00 -1.541776458E-01 3.103335298E-02
 1.056273804E+00 -1.499999695E-01 3.103306709E-02
 1.102670604E+00 -2.286741012E-01 3.105978957E-02
 1.102486858E+00 -2.410218380E-01 3.106481056E-02
 1.091081444E+00 -1.964467637E-01 3.104864245E-02
 1.098911710E+00 -2.044181694E-01 3.105033571E-02
 1.105996854E+00 -2.208338850E-01 3.105518676E-02
 1.106812182E+00 -2.125994726E-01 3.105175524E-02
 8.465754395E-01 -5.000000000E-01 3.073810625E-02
 1.114184171E+00 -2.527327351E-01 3.106551055E-02
 1.114703165E+00 -2.643494146E-01 3.106950063E-02
 1.112614482E+00 -3.210087343E-01 3.108928540E-02
 1.111793350E+00 -3.384534785E-01 3.109495746E-02
 1.103482566E+00 -3.725416309E-01 3.110983385E-02
 1.110249716E+00 -3.559092584E-01 3.110044631E-02
 1.056909751E+00 -4.460836154E-01 3.099821981E-02
 1.080165295E+00 -4.221873902E-01 3.109603799E-02
 1.028545983E+00 -4.706956985E-01 3.085834869E-02
 1.103402438E+00 -3.980775912E-01 3.111075434E-02
 1.027397217E+00 -5.000000000E-01 3.079461314E-02
 1.115833185E+00 -2.765381895E-01 3.107361683E-02
 1.130602838E+00 -3.060217343E-01 3.107744664E-02
 1.131045139E+00 -2.903251596E-01 3.107262416E-02
 1.091135878E+00 -1.818363148E-01 3.104165044E-02
 1.091262311E+00 -1.889810969E-01 3.104499778E-02
 1.072883948E+00 -1.588910107E-01 3.103376506E-02
 1.078441479E+00 -1.641419380E-01 3.103539989E-02
 1.084147064E+00 -1.700167470E-01 3.103723410E-02
 1.090430261E+00 -1.757346334E-01 3.103875756E-02
 1.063823124E+00 -1.541542005E-01 3.103271778E-02
 1.068063237E+00 -1.543507008E-01 3.103218677E-02
 1.060266113E+00 -1.499999695E-01 3.103229106E-02
 1.114181599E+00 -2.304082882E-01 3.105700981E-02
 1.114037424E+00 -2.413492803E-01 3.106123360E-02
 1.098930151E+00 -1.964931587E-01 3.104672902E-02
 1.106975712E+00 -2.043837306E-01 3.104821314E-02
 1.115243697E+00 -2.126141319E-01 3.104956664E-02
 1.114944265E+00 -2.212591583E-01 3.105314213E-02
 1.126693315E+00 -2.634854340E-01 3.106526012E-02
 1.125597492E+00 -2.524283254E-01 3.106177210E-02
 1.130015860E+00 -3.219338899E-01 3.108223502E-02