TITLE     = "fluent21.1.0  build-id: 10179"
VARIABLES = "X"
"Y"
"Velocity Magnitude"
DATASETAUXDATA CFDA.ID1="Pressure"
DATASETAUXDATA CFDA.ID2="Density"
DATASETAUXDATA Common.DensityVar="12"
DATASETAUXDATA Common.PressureVar="3"
DATASETAUXDATA Common.UVar="5"
DATASETAUXDATA Common.VectorVarsAreVelocity="TRUE"
DATASETAUXDATA Common.ViscosityVar="14"
DATASETAUXDATA Common.VVar="7"
ZONE T="sur_out"
 STRANDID=1, SOLUTIONTIME=396.5
 Nodes=14307, Elements=14184, ZONETYPE=FEQuadrilateral
 DATAPACKING=POINT
 FACENEIGHBORCONNECTIONS=1051
 FACENEIGHBORMODE=GLOBALONETOMANY
 DT=(DOUBLE DOUBLE DOUBLE )
 9.063741353E-01 -1.533338230E-01 2.694404879E-02
 9.085549316E-01 -1.499999695E-01 2.681756569E-02
 9.045625610E-01 -1.499999695E-01 2.685237199E-02
 9.113484739E-01 -1.542039737E-01 2.694857210E-02
 9.125473633E-01 -1.499999695E-01 2.682175778E-02
 9.158872510E-01 -1.545530096E-01 2.694672247E-02
 9.165397949E-01 -1.499999695E-01 2.681742144E-02
 9.202813887E-01 -1.546971369E-01 2.695637904E-02
 9.205321655E-01 -1.499999695E-01 2.682680103E-02
 9.153732023E-01 -1.592847587E-01 2.721354752E-02
 9.105860375E-01 -1.589034663E-01 2.721618944E-02
 9.200174968E-01 -1.594914330E-01 2.722209598E-02
 9.246753578E-01 -1.547218036E-01 2.698088490E-02
 9.245245361E-01 -1.499999695E-01 2.685225199E-02
 9.196650126E-01 -1.643875110E-01 2.750007293E-02
 9.149934157E-01 -1.641505016E-01 2.749538900E-02
 9.247319267E-01 -1.595607292E-01 2.724511212E-02
 9.291435651E-01 -1.546135919E-01 2.702106427E-02
 9.285169678E-01 -1.499999695E-01 2.689472007E-02
 9.189842873E-01 -1.693168603E-01 2.777671095E-02
 9.151122900E-01 -1.691581358E-01 2.777688272E-02
 9.246431338E-01 -1.645467493E-01 2.752397449E-02
 9.295641308E-01 -1.594556999E-01 2.728209231E-02
 9.337923174E-01 -1.542675551E-01 2.707571134E-02
 9.325093994E-01 -1.499999695E-01 2.695218638E-02
 9.167942972E-01 -1.739748461E-01 2.807587034E-02
 9.243358033E-01 -1.697051442E-01 2.781898415E-02
 9.298087871E-01 -1.644979192E-01 2.755956918E-02
 9.345369575E-01 -1.591321581E-01 2.733412592E-02
 9.365017700E-01 -1.499999695E-01 2.699917116E-02
 9.389513414E-01 -1.533187119E-01 2.713798717E-02
 9.236803391E-01 -1.752162271E-01 2.814646288E-02
 9.300185846E-01 -1.697216903E-01 2.785522781E-02
 9.349695572E-01 -1.642417479E-01 2.760863867E-02
 9.397825131E-01 -1.585509680E-01 2.741296355E-02
 9.404941406E-01 -1.499999695E-01 2.707458702E-02
 9.303635284E-01 -1.753017109E-01 2.818504161E-02
 9.232161545E-01 -1.818583126E-01 2.852222377E-02
 9.163281153E-01 -1.813740034E-01 2.850160612E-02
 9.355252294E-01 -1.693559242E-01 2.788234227E-02
 9.399633246E-01 -1.639624724E-01 2.768571822E-02
 9.441600496E-01 -1.537686594E-01 2.728068625E-02
 9.456402443E-01 -1.577784576E-01 2.752542075E-02
 9.444865723E-01 -1.499999695E-01 2.719702412E-02
 9.301936990E-01 -1.820288982E-01 2.856391433E-02
 9.375023765E-01 -1.742006914E-01 2.820613424E-02
 9.226345849E-01 -1.887680603E-01 2.891866144E-02
 9.156516954E-01 -1.882958119E-01 2.889094360E-02
 9.395692581E-01 -1.692421958E-01 2.795114562E-02
 9.454886739E-01 -1.637986387E-01 2.780947454E-02
 9.475435346E-01 -1.539670303E-01 2.740322652E-02
 9.484789429E-01 -1.499999695E-01 2.733003633E-02
 9.298106929E-01 -1.890515631E-01 2.896750234E-02
 9.373303169E-01 -1.818673785E-01 2.863032468E-02
 9.146945579E-01 -1.951420841E-01 2.926516149E-02
 9.218328787E-01 -1.958039722E-01 2.930426813E-02
 9.452493199E-01 -1.694314229E-01 2.808522849E-02
 9.511950355E-01 -1.587907318E-01 2.774592252E-02
 9.510647509E-01 -1.640042044E-01 2.797338063E-02
 9.518771220E-01 -1.543079604E-01 2.756300631E-02
 9.524713745E-01 -1.499999695E-01 2.748112133E-02
 9.292868377E-01 -1.962430231E-01 2.936540801E-02
 9.370960359E-01 -1.891317932E-01 2.903801878E-02
 9.447235495E-01 -1.752362476E-01 2.838716751E-02
 9.445091721E-01 -1.820998357E-01 2.874460671E-02
 9.207163849E-01 -2.030311773E-01 2.965566582E-02
 9.148725468E-01 -2.026967259E-01 2.961841945E-02
 9.511988423E-01 -1.694421555E-01 2.823987385E-02
 9.561771036E-01 -1.590482617E-01 2.792997218E-02
 9.563496295E-01 -1.639608538E-01 2.814747586E-02
 9.562857932E-01 -1.544540392E-01 2.773728227E-02
 9.564637451E-01 -1.499999695E-01 2.764732862E-02
 9.368725146E-01 -1.964014959E-01 2.944104749E-02
 9.286355164E-01 -2.037008615E-01 2.974705897E-02
 9.443383146E-01 -1.892000339E-01 2.913792486E-02
 9.516133455E-01 -1.752047448E-01 2.854289478E-02
 9.516099804E-01 -1.820850048E-01 2.889172862E-02
 9.175400052E-01 -2.099185105E-01 2.997615378E-02
 9.568465485E-01 -1.691022408E-01 2.838031180E-02
 9.608675286E-01 -1.589544656E-01 2.811178097E-02
 9.612956248E-01 -1.636571894E-01 2.832621228E-02
 9.606200050E-01 -1.544334409E-01 2.791573409E-02
 9.604561768E-01 -1.499999695E-01 2.782287315E-02
 9.442580699E-01 -1.963791091E-01 2.953279966E-02
 9.368548601E-01 -2.038575609E-01 2.983560785E-02
 9.276997878E-01 -2.116763707E-01 3.011804993E-02
 9.514582129E-01 -1.892047088E-01 2.927039185E-02
 9.588880322E-01 -1.740253153E-01 2.870544369E-02
 9.588240880E-01 -1.818227195E-01 2.907259374E-02
 9.609441486E-01 -1.689537052E-01 2.853980057E-02
 9.653773338E-01 -1.586410441E-01 2.827497140E-02
 9.670170424E-01 -1.627240439E-01 2.853225291E-02
 9.648728507E-01 -1.542952404E-01 2.809720289E-02
 9.644485474E-01 -1.499999695E-01 2.800671127E-02
 9.446877757E-01 -2.035377877E-01 2.990426712E-02
 9.511387018E-01 -1.963991800E-01 2.965520903E-02
 9.372382573E-01 -2.118070106E-01 3.022552709E-02
 9.273936275E-01 -2.212738868E-01 3.048145039E-02
 9.173436780E-01 -2.209147683E-01 3.039470433E-02
 9.587182113E-01 -1.891619236E-01 2.943892031E-02
 9.662120305E-01 -1.750431663E-01 2.901010357E-02
 9.660752234E-01 -1.820083639E-01 2.930329347E-02
 9.667444453E-01 -1.690038490E-01 2.876924210E-02
 9.687604493E-01 -1.585520757E-01 2.844974055E-02
 9.690536032E-01 -1.540762192E-01 2.829083029E-02
 9.684409790E-01 -1.499999695E-01 2.820222770E-02
 9.473418218E-01 -2.103881614E-01 3.031369571E-02
 9.503205897E-01 -2.035624704E-01 3.001397335E-02
 9.585223694E-01 -1.964824224E-01 2.981709628E-02
 9.370974519E-01 -2.213380127E-01 3.060061375E-02
 9.274657950E-01 -2.311744584E-01 3.080560341E-02
 9.174098815E-01 -2.312835999E-01 3.072532946E-02
 9.660488459E-01 -1.891667801E-01 2.964372763E-02
 9.731355162E-01 -1.751248668E-01 2.928389928E-02
 9.732086682E-01 -1.819903500E-01 2.956448338E-02
 9.728042098E-01 -1.692841454E-01 2.903795052E-02
 9.729120411E-01 -1.637297756E-01 2.884022960E-02
 9.736054537E-01 -1.587291759E-01 2.868405200E-02
 9.741509171E-01 -1.534289073E-01 2.852544993E-02
 9.724333496E-01 -1.499999695E-01 2.837666929E-02
 9.470720462E-01 -2.211245157E-01 3.075337391E-02
 9.581385170E-01 -2.039606401E-01 3.019659201E-02
 9.660989304E-01 -1.964433305E-01 3.000751455E-02
 9.367641620E-01 -2.311902646E-01 3.092366441E-02
 9.283813001E-01 -2.409853805E-01 3.106734128E-02
 9.179457012E-01 -2.416575019E-01 3.100789953E-02
 9.732910748E-01 -1.890776735E-01 2.987683874E-02
 9.803246555E-01 -1.741424713E-01 2.957134802E-02
 9.803328513E-01 -1.817290196E-01 2.984794828E-02
 9.784331753E-01 -1.692470078E-01 2.927898837E-02
 9.782331320E-01 -1.641461778E-01 2.910551264E-02
 9.786128642E-01 -1.591705864E-01 2.895077443E-02
 9.792477509E-01 -1.543140108E-01 2.882634632E-02
 9.764257813E-01 -1.499999695E-01 2.855106635E-02
 9.573904399E-01 -2.119090223E-01 3.057707610E-02
 9.467274024E-01 -2.313271992E-01 3.108537322E-02
 9.571384466E-01 -2.214621281E-01 3.095530279E-02
 9.663389475E-01 -2.039076741E-01 3.039151527E-02
 9.734896398E-01 -1.962497895E-01 3.021468832E-02
 9.358775141E-01 -2.409695196E-01 3.116888362E-02
 9.322361904E-01 -2.501400422E-01 3.133702284E-02
 9.191904432E-01 -2.524483661E-01 3.126429058E-02
 9.804112004E-01 -1.889173528E-01 3.013643662E-02
 9.873459249E-01 -1.752232714E-01 2.994679854E-02
 9.873888338E-01 -1.818531253E-01 3.016113109E-02
 9.823758098E-01 -1.693881911E-01 2.950603018E-02
 9.829874433E-01 -1.644041921E-01 2.936192896E-02
 9.833790799E-01 -1.594618640E-01 2.921555609E-02
 9.804181519E-01 -1.499999695E-01 2.877522626E-02
 9.838183274E-01 -1.546364899E-01 2.908042343E-02
 9.669599122E-01 -2.118425983E-01 3.079166656E-02
 9.461642621E-01 -2.415763608E-01 3.133882407E-02
 9.570313596E-01 -2.314700704E-01 3.128600673E-02
 9.671102830E-01 -2.213833227E-01 3.118149045E-02
 9.741710821E-01 -2.034136964E-01 3.055949178E-02
 9.804011012E-01 -1.960898447E-01 3.044665052E-02
 9.068370381E-01 -2.419266309E-01 3.095675780E-02
 9.067628360E-01 -2.530357910E-01 3.121050898E-02
 9.198820597E-01 -2.649852497E-01 3.150133195E-02
 9.327691378E-01 -2.641116002E-01 3.159430917E-02
 9.876159369E-01 -1.887726030E-01 3.042451470E-02
 9.939136069E-01 -1.751529411E-01 3.026838317E-02
 9.942586497E-01 -1.816650765E-01 3.048307624E-02
 9.877585564E-01 -1.697317691E-01 2.978049041E-02
 9.879718604E-01 -1.645903207E-01 2.962779776E-02
 9.881076958E-01 -1.596093971E-01 2.947590899E-02
 9.844105835E-01 -1.499999695E-01 2.901685742E-02
 9.882419429E-01 -1.547528553E-01 2.932709765E-02
 9.770372359E-01 -2.102161902E-01 3.099463456E-02
 9.450411483E-01 -2.522147691E-01 3.154583575E-02
 9.570537168E-01 -2.418094098E-01 3.154399877E-02
 9.673297280E-01 -2.313318819E-01 3.151275897E-02
 9.770854882E-01 -2.209457359E-01 3.142820600E-02
 9.798368819E-01 -2.032983154E-01 3.075516313E-02
 9.878709144E-01 -1.959099152E-01 3.071693964E-02
 9.067203562E-01 -2.653684258E-01 3.144460903E-02
 9.447286606E-01 -2.644611246E-01 3.173669644E-02
 9.343255005E-01 -2.768840028E-01 3.178770317E-02
 9.208962641E-01 -2.780353609E-01 3.171506137E-02
 9.947876259E-01 -1.883931451E-01 3.072739635E-02
 1.000690555E+00 -1.739601030E-01 3.059330296E-02
 1.000926159E+00 -1.812086260E-01 3.079861459E-02
 9.933389181E-01 -1.697106541E-01 3.007489571E-02
 9.930365016E-01 -1.645875971E-01 2.990082062E-02
 9.928402608E-01 -1.596098277E-01 2.973670469E-02
 9.884029541E-01 -1.499999695E-01 2.925377198E-02
 9.926387885E-01 -1.547523025E-01 2.957292401E-02
 9.571221407E-01 -2.527076542E-01 3.175009190E-02
 9.679851611E-01 -2.415025012E-01 3.177244840E-02
 9.773058574E-01 -2.310127290E-01 3.175400484E-02
 9.871328151E-01 -2.115806049E-01 3.136738587E-02
 9.869016203E-01 -2.211811315E-01 3.171773012E-02
 9.877571420E-01 -2.034852459E-01 3.103109482E-02
 9.957147516E-01 -1.952966430E-01 3.101099210E-02
 9.067031130E-01 -2.785026077E-01 3.165567336E-02
 9.572339406E-01 -2.647169730E-01 3.192192433E-02
 9.439883844E-01 -2.768074932E-01 3.189729745E-02
 9.397110436E-01 -2.885719396E-01 3.199506990E-02
 9.227243225E-01 -2.917815427E-01 3.190524750E-02
 1.001551095E+00 -1.878025098E-01 3.100150991E-02
 9.986329747E-01 -1.693362215E-01 3.032823610E-02
 1.007491478E+00 -1.748834593E-01 3.098334954E-02
 1.007192820E+00 -1.813851911E-01 3.112560253E-02
 9.979870857E-01 -1.644108945E-01 3.016493114E-02
 9.975700752E-01 -1.594697491E-01 2.999703861E-02
 9.923953857E-01 -1.499999695E-01 2.949066763E-02
 9.970696896E-01 -1.546364409E-01 2.982057681E-02
 9.692933714E-01 -2.520998592E-01 3.197740285E-02
 9.783001551E-01 -2.407695002E-01 3.198758288E-02
 9.866085367E-01 -2.310306763E-01 3.201707714E-02
 9.968483057E-01 -2.114502816E-01 3.168628005E-02
 9.968185359E-01 -2.211843737E-01 3.203380006E-02
 9.962019609E-01 -2.031574062E-01 3.133319493E-02
 1.004003505E+00 -1.937188692E-01 3.132411379E-02
 9.067015748E-01 -2.926002558E-01 3.184538864E-02
 8.925123049E-01 -2.780349790E-01 3.162593475E-02
 8.935580071E-01 -2.649807093E-01 3.141542449E-02
 9.699907934E-01 -2.643649974E-01 3.213619140E-02
 9.572165011E-01 -2.773098890E-01 3.206597665E-02
 9.407412899E-01 -3.067220843E-01 3.216813390E-02
 9.236165758E-01 -3.079155978E-01 3.207069881E-02
 1.006470294E+00 -1.878372613E-01 3.127113898E-02
 1.002488555E+00 -1.692192670E-01 3.056571878E-02
 1.014157245E+00 -1.748517639E-01 3.133214279E-02
 1.013860520E+00 -1.815634688E-01 3.147503509E-02
 1.007913779E+00 -1.693151555E-01 3.085336193E-02
 1.002689366E+00 -1.642182297E-01 3.042660493E-02
 1.002364226E+00 -1.592009916E-01 3.026037836E-02
 9.963877563E-01 -1.499999695E-01 2.972958347E-02
 1.001666064E+00 -1.543141615E-01 3.007127572E-02
 9.821512810E-01 -2.498188581E-01 3.224070488E-02
 9.857583208E-01 -2.407439126E-01 3.220865691E-02
 9.965617633E-01 -2.312002400E-01 3.231461565E-02
 1.007272098E+00 -2.098788531E-01 3.201808961E-02
 1.007023092E+00 -2.209161968E-01 3.236996540E-02
 1.004499131E+00 -2.023923531E-01 3.161007236E-02
 9.067097124E-01 -3.083706348E-01 3.201220406E-02
 8.906812866E-01 -2.917799313E-01 3.181454933E-02
 8.790728965E-01 -2.768838417E-01 3.161717735E-02
 8.806486945E-01 -2.641027523E-01 3.142150215E-02
 9.826148072E-01 -2.635783643E-01 3.237316815E-02
 9.709297194E-01 -2.770095879E-01 3.226744954E-02
 9.567757205E-01 -2.906645749E-01 3.218998875E-02
 9.243357852E-01 -3.248018454E-01 3.220733693E-02
 9.419928547E-01 -3.239108556E-01 3.229503105E-02
 9.576728538E-01 -3.064869275E-01 3.230697943E-02
 1.013112649E+00 -1.883809612E-01 3.159985993E-02
 1.013771822E+00 -1.691265416E-01 3.117238862E-02
 1.021468092E+00 -1.737549512E-01 3.170203929E-02
 1.020947098E+00 -1.815627078E-01 3.184151949E-02
 1.007889739E+00 -1.640053539E-01 3.070808976E-02
 1.007503466E+00 -1.587769358E-01 3.053797750E-02
 1.000380188E+00 -1.499999695E-01 2.997020431E-02
 1.006827689E+00 -1.534067646E-01 3.034168950E-02
 9.960096374E-01 -2.413572621E-01 3.249073784E-02
 1.006899339E+00 -2.312336484E-01 3.263850334E-02
 1.017452126E+00 -2.118270622E-01 3.247684500E-02
 1.017115003E+00 -2.213667716E-01 3.273161243E-02
 1.010537838E+00 -2.028083718E-01 3.190514928E-02
 1.011786483E+00 -1.952493254E-01 3.173202237E-02
 9.067249671E-01 -3.251146642E-01 3.215242312E-02
 8.898032533E-01 -3.079100332E-01 3.198533504E-02
 8.736865310E-01 -2.885695734E-01 3.180267607E-02
 9.944390389E-01 -2.639962913E-01 3.263077784E-02
 9.948606783E-01 -2.519014778E-01 3.257936327E-02
 9.839669064E-01 -2.760570244E-01 3.246624159E-02
 9.725871000E-01 -2.902282876E-01 3.238122447E-02
 9.594856224E-01 -3.227741688E-01 3.241372152E-02
 9.434661810E-01 -3.413816075E-01 3.239264249E-02
 9.250363948E-01 -3.423088245E-01 3.231509716E-02
 9.737675106E-01 -3.057289841E-01 3.247122087E-02
 1.020312615E+00 -1.888121733E-01 3.196664421E-02
 1.019569441E+00 -1.686170447E-01 3.145498253E-02
 1.013419875E+00 -1.636679744E-01 3.100501323E-02
 1.028728477E+00 -1.752319206E-01 3.211585772E-02
 1.028139050E+00 -1.820969622E-01 3.221590360E-02
 1.012899502E+00 -1.584624384E-01 3.082592246E-02
 1.004372559E+00 -1.499999695E-01 3.017207984E-02
 1.012206376E+00 -1.539245205E-01 3.066378816E-02
 1.006892388E+00 -2.415815950E-01 3.280838606E-02
 1.017205542E+00 -2.312355109E-01 3.297062509E-02
 1.026820200E+00 -2.123498845E-01 3.285619730E-02
 1.026816694E+00 -2.214929710E-01 3.308828838E-02
 1.018613808E+00 -2.037115989E-01 3.226704938E-02
 1.019495427E+00 -1.960691637E-01 3.210141400E-02
 9.067443124E-01 -3.425829471E-01 3.226630832E-02
 8.891142460E-01 -3.247925433E-01 3.212929577E-02
 8.726743515E-01 -3.067092743E-01 3.199583692E-02
 1.006909666E+00 -2.524179407E-01 3.288907086E-02
 1.006889704E+00 -2.643276282E-01 3.290987318E-02
 9.934625401E-01 -2.760862675E-01 3.266278930E-02
 9.888897497E-01 -2.874654172E-01 3.260995166E-02
 9.624079187E-01 -3.395033110E-01 3.249901210E-02
 9.759392371E-01 -3.211722543E-01 3.254126489E-02
 9.444411152E-01 -3.597867272E-01 3.246460892E-02
 9.256142291E-01 -3.604728859E-01 3.239731623E-02
 9.889059610E-01 -3.049446257E-01 3.265160211E-02
 1.027681045E+00 -1.891904668E-01 3.233524725E-02
 1.023938197E+00 -1.685113190E-01 3.171841286E-02
 1.019085204E+00 -1.630263163E-01 3.129514267E-02
 1.035479929E+00 -1.757470189E-01 3.246716519E-02
 1.035189890E+00 -1.823696089E-01 3.257727919E-02
 1.029818721E+00 -1.693054744E-01 3.203004634E-02
 1.018436000E+00 -1.574394115E-01 3.111187905E-02
 1.008364990E+00 -1.499999695E-01 3.036218586E-02
 1.016718391E+00 -1.538039619E-01 3.089199496E-02
 1.012357361E+00 -1.499999695E-01 3.059600666E-02
 1.017811475E+00 -2.413044832E-01 3.312948657E-02
 1.027078813E+00 -2.310351562E-01 3.328925573E-02
 1.026984468E+00 -2.041441943E-01 3.264228696E-02
 1.036061047E+00 -2.119493435E-01 3.320736440E-02
 1.036308844E+00 -2.212337423E-01 3.342440634E-02
 1.027275139E+00 -1.964907914E-01 3.247034066E-02
 9.067655482E-01 -3.606977544E-01 3.235529068E-02
 8.884516377E-01 -3.422963867E-01 3.224579224E-02
 8.714539094E-01 -3.238906114E-01 3.213886194E-02
 1.019079774E+00 -2.518174668E-01 3.320442476E-02
 1.019695309E+00 -2.640126327E-01 3.320363104E-02
 1.006568766E+00 -2.767817507E-01 3.290003327E-02
 9.826511967E-01 -3.352695152E-01 3.264195997E-02
 9.640355210E-01 -3.585531410E-01 3.255869195E-02
 9.879115907E-01 -3.208320950E-01 3.267349096E-02
 9.446452900E-01 -3.787246193E-01 3.251576026E-02
 9.262119695E-01 -3.791015272E-01 3.245922623E-02
 1.005069293E+00 -3.057074201E-01 3.285532878E-02
 1.005526241E+00 -2.900108809E-01 3.287744836E-02
 1.034990972E+00 -1.893434817E-01 3.269143332E-02
 1.024888044E+00 -1.623260025E-01 3.159974916E-02
 1.035867906E+00 -1.697907632E-01 3.235717470E-02
 1.042143948E+00 -1.755737398E-01 3.278878587E-02
 1.042153350E+00 -1.822870006E-01 3.291293921E-02
 1.030737879E+00 -1.636732847E-01 3.194725322E-02
 1.023587639E+00 -1.580366065E-01 3.139751708E-02
 1.019862928E+00 -1.538203832E-01 3.108742322E-02
 1.016349792E+00 -1.499999695E-01 3.082837917E-02
 1.028093704E+00 -2.405739224E-01 3.341496327E-02
 1.036277261E+00 -2.308367923E-01 3.359124012E-02
 1.035242738E+00 -2.040331018E-01 3.299400137E-02
 1.045877857E+00 -2.101843784E-01 3.355850387E-02
 1.046103683E+00 -2.206594954E-01 3.375618440E-02
 1.034947869E+00 -1.965592114E-01 3.282275921E-02
 9.067857807E-01 -3.793345869E-01 3.242375603E-02
 8.879157122E-01 -3.604570803E-01 3.233773708E-02
 8.700191805E-01 -3.413556752E-01 3.225380696E-02
 1.031952759E+00 -2.495068194E-01 3.354936098E-02
 1.032438745E+00 -2.631898499E-01 3.349034521E-02
 1.020415262E+00 -2.766127875E-01 3.316896711E-02
 9.843315031E-01 -3.566799881E-01 3.267697425E-02
 9.649483986E-01 -3.781852835E-01 3.259616005E-02
 1.004192579E+00 -3.218260145E-01 3.283446615E-02
 9.429487128E-01 -3.977789729E-01 3.254624326E-02
 9.277622974E-01 -3.978029262E-01 3.250214127E-02
 1.021597073E+00 -2.899476318E-01 3.312990751E-02
 1.021659273E+00 -3.058968806E-01 3.307490333E-02
 1.042145902E+00 -1.892670184E-01 3.302586226E-02
 1.036390991E+00 -1.642355829E-01 3.224815754E-02
 1.041791684E+00 -1.698544498E-01 3.265398404E-02
 1.049160449E+00 -1.744134297E-01 3.310182838E-02
 1.049140680E+00 -1.819405581E-01 3.323072050E-02
 1.027073125E+00 -1.583287164E-01 3.161584904E-02
 1.031848296E+00 -1.587806037E-01 3.186474244E-02
 1.023938519E+00 -1.540039568E-01 3.130082127E-02
 1.020342163E+00 -1.499999695E-01 3.104030443E-02
 1.035531769E+00 -2.404492309E-01 3.366242074E-02
 1.046259791E+00 -2.306221716E-01 3.389785398E-02
 1.042988800E+00 -2.034855522E-01 3.328890290E-02
 1.055973690E+00 -2.206014222E-01 3.408638421E-02
 1.055680260E+00 -2.114715847E-01 3.395003949E-02
 1.042291016E+00 -1.963813606E-01 3.314607586E-02
 9.068004778E-01 -3.984457815E-01 3.247339955E-02
 8.873592113E-01 -3.790769056E-01 3.240836717E-02
 8.690841358E-01 -3.597593576E-01 3.234517869E-02
 1.044344285E+00 -2.634791002E-01 3.375071336E-02
 1.044669175E+00 -2.514827719E-01 3.386807268E-02
 1.033798499E+00 -2.756601935E-01 3.341960446E-02
 1.002665734E+00 -3.381599278E-01 3.281185960E-02
 1.003879218E+00 -3.561544556E-01 3.280096896E-02
 9.867281156E-01 -3.766466257E-01 3.269929917E-02
 9.643301983E-01 -3.987488889E-01 3.261507622E-02
 1.021131553E+00 -3.224610278E-01 3.301396364E-02
 9.350282856E-01 -4.157873574E-01 3.252996997E-02
 1.038785823E+00 -2.872267166E-01 3.341900385E-02
 1.038829249E+00 -3.053801849E-01 3.328997979E-02
 1.049153346E+00 -1.890904333E-01 3.334062826E-02
 1.037091881E+00 -1.589661002E-01 3.213738262E-02
 1.041873980E+00 -1.644796116E-01 3.252466916E-02
 1.047287922E+00 -1.695766075E-01 3.289496414E-02
 1.056042522E+00 -1.754239693E-01 3.342982647E-02
 1.056108855E+00 -1.819876856E-01 3.353542169E-02
 1.027958339E+00 -1.541201145E-01 3.152590320E-02
 1.032490655E+00 -1.541073531E-01 3.175634786E-02
 1.024334595E+00 -1.499999695E-01 3.125439312E-02
 1.045828857E+00 -2.408699519E-01 3.393487547E-02
 1.056886297E+00 -2.301017832E-01 3.420847874E-02
 1.048555493E+00 -2.033559164E-01 3.354930724E-02
 1.056276938E+00 -2.035330467E-01 3.384200831E-02
 1.065241950E+00 -2.201430435E-01 3.436437873E-02
 1.064593588E+00 -2.115532101E-01 3.425665947E-02
 1.049087521E+00 -1.962346501E-01 3.344583620E-02
 9.068077271E-01 -4.187775542E-01 3.248703305E-02
 8.858366386E-01 -3.977729650E-01 3.245678506E-02
 8.689134970E-01 -3.786995827E-01 3.241518305E-02
 1.056744674E+00 -2.636151208E-01 3.399097874E-02
 1.056592794E+00 -2.520383483E-01 3.413518016E-02
 1.043556267E+00 -2.755225941E-01 3.362371839E-02
 1.019946789E+00 -3.393549145E-01 3.295972570E-02
 1.017854444E+00 -3.566881638E-01 3.291199603E-02
 1.010607883E+00 -3.729733136E-01 3.283328594E-02
 9.869848428E-01 -3.987098325E-01 3.270435492E-02
 9.623207044E-01 -4.201913732E-01 3.259574412E-02
 1.038704166E+00 -3.226216081E-01 3.319013528E-02
 1.056166039E+00 -3.057322725E-01 3.348691810E-02
 1.056148025E+00 -2.896229789E-01 3.365068510E-02
 1.056244605E+00 -1.889629742E-01 3.364281952E-02
 1.037840867E+00 -1.534920315E-01 3.201042910E-02
 1.042299371E+00 -1.593207424E-01 3.240132480E-02
 1.047032075E+00 -1.644912176E-01 3.276966595E-02
 1.051187172E+00 -1.695522735E-01 3.310004108E-02
 1.062354506E+00 -1.755390303E-01 3.369327604E-02
 1.063013012E+00 -1.816560238E-01 3.381700332E-02
 1.056565979E+00 -1.697809450E-01 3.332885631E-02
 1.032319336E+00 -1.499999695E-01 3.169131220E-02
 1.028327026E+00 -1.499999695E-01 3.147294108E-02
 1.056878557E+00 -2.409142160E-01 3.422618284E-02
 1.068463140E+00 -2.282225680E-01 3.452417771E-02
 1.056352823E+00 -1.961344273E-01 3.374239178E-02
 1.064509865E+00 -2.031731251E-01 3.414568411E-02
 1.071920496E+00 -2.201667041E-01 3.458799814E-02
 1.072909576E+00 -2.114014950E-01 3.452584229E-02
 9.068182925E-01 -4.449716623E-01 3.236106583E-02
 9.353019866E-01 -4.443859605E-01 3.239677708E-02
 8.785745141E-01 -4.157589450E-01 3.247588129E-02
 8.706354072E-01 -3.977550713E-01 3.246319949E-02
 1.057296869E+00 -2.756371220E-01 3.382789897E-02
 1.068762050E+00 -2.631930255E-01 3.420559218E-02
 1.068113809E+00 -2.520448856E-01 3.436662058E-02
 1.038129227E+00 -3.400674631E-01 3.310388969E-02
 1.036906240E+00 -3.581489277E-01 3.302621445E-02
 1.010056103E+00 -3.981865934E-01 3.280316663E-02
 9.867248712E-01 -4.211767681E-01 3.266912916E-02
 9.630483123E-01 -4.448957992E-01 3.245587699E-02
 1.056685842E+00 -3.224522660E-01 3.335710150E-02
 1.072977162E+00 -3.053723308E-01 3.365412030E-02
 1.072331383E+00 -2.897856007E-01 3.383900901E-02
 1.063356575E+00 -1.886713248E-01 3.392738955E-02
 1.043017987E+00 -1.543594811E-01 3.229294285E-02
 1.036311768E+00 -1.499999695E-01 3.187699006E-02
 1.047235427E+00 -1.594574017E-01 3.264147157E-02
 1.051757336E+00 -1.644485769E-01 3.299129359E-02
 1.068154472E+00 -1.752695380E-01 3.390287563E-02
 1.070240079E+00 -1.804360437E-01 3.408226485E-02
 1.062213277E+00 -1.698100366E-01 3.356666325E-02
 1.056854319E+00 -1.643569901E-01 3.320895260E-02
 1.068243924E+00 -2.405741461E-01 3.449216468E-02
 1.063790127E+00 -1.958260814E-01 3.403229776E-02
 1.073363753E+00 -2.017777103E-01 3.444290882E-02
 1.081062929E+00 -2.208840087E-01 3.481673106E-02
 1.081706943E+00 -2.120873367E-01 3.477926346E-02
 9.362842762E-01 -4.718369234E-01 3.193526032E-02
 9.068322395E-01 -4.721921314E-01 3.189798226E-02
 8.783224290E-01 -4.443622770E-01 3.234907085E-02
 8.492548181E-01 -3.986902284E-01 3.249232862E-02
 8.486096674E-01 -3.781370358E-01 3.244606585E-02
 1.072735630E+00 -2.736733122E-01 3.408293927E-02
 1.077448897E+00 -2.633745018E-01 3.435081286E-02
 1.078862758E+00 -2.523156789E-01 3.455153541E-02
 1.056943285E+00 -3.401021660E-01 3.324467054E-02
 1.034521531E+00 -3.771907295E-01 3.295890888E-02
 1.057020784E+00 -3.585457711E-01 3.314791640E-02
 1.009040160E+00 -4.215816174E-01 3.274309944E-02
 1.033551693E+00 -3.994435251E-01 3.290228742E-02
 9.884289146E-01 -4.441307982E-01 3.253366092E-02
 9.659882411E-01 -4.707156211E-01 3.200230643E-02
 1.074892355E+00 -3.212620958E-01 3.350638824E-02
 1.088510830E+00 -3.046479872E-01 3.378596702E-02
 1.087453778E+00 -2.904109471E-01 3.397354971E-02
 1.070373036E+00 -1.882503855E-01 3.418577943E-02
 1.047653238E+00 -1.546105356E-01 3.251422185E-02
 1.040304199E+00 -1.499999695E-01 3.204540693E-02
 1.044296631E+00 -1.499999695E-01 3.224593032E-02
 1.051986189E+00 -1.594000755E-01 3.285850762E-02
 1.072318328E+00 -1.753084482E-01 3.407873619E-02
 1.067704976E+00 -1.697946297E-01 3.378107604E-02
 1.062245693E+00 -1.641336856E-01 3.342749583E-02
 1.056889980E+00 -1.590769730E-01 3.306050864E-02
 1.080023031E+00 -2.301271631E-01 3.480736319E-02
 1.079505182E+00 -2.410784080E-01 3.471872538E-02
 1.070921499E+00 -1.953245128E-01 3.427551283E-02
 1.082295915E+00 -2.035468869E-01 3.473575359E-02
 1.090514102E+00 -2.125048606E-01 3.500608968E-02
 1.090571953E+00 -2.211275539E-01 3.503473440E-02
 9.068493652E-01 -5.000000000E-01 3.155470077E-02
 9.369863281E-01 -5.000000000E-01 3.159285848E-02
 8.773708194E-01 -4.718239041E-01 3.188772124E-02
 8.505491460E-01 -4.448394396E-01 3.236505363E-02
 8.512703688E-01 -4.201268575E-01 3.249541694E-02
 1.090375854E+00 -2.526822489E-01 3.469812159E-02
 1.089432930E+00 -2.642825773E-01 3.445657355E-02
 1.075882251E+00 -3.392640091E-01 3.337188442E-02
 1.056980474E+00 -3.781590665E-01 3.306734424E-02
 1.077163551E+00 -3.577008366E-01 3.325563790E-02
 1.032671293E+00 -4.224250763E-01 3.281629528E-02
 1.006503840E+00 -4.444077377E-01 3.258162845E-02
 1.056845323E+00 -3.999011951E-01 3.299481024E-02
 9.973718804E-01 -4.660063752E-01 3.215727769E-02
 9.671232910E-01 -5.000000000E-01 3.166488727E-02
 1.094021447E+00 -3.179296618E-01 3.365472649E-02
 1.087838950E+00 -2.763763113E-01 3.420736469E-02
 1.099575997E+00 -3.047890944E-01 3.385668368E-02
 1.101122420E+00 -2.908057603E-01 3.405792162E-02
 1.076961735E+00 -1.885809825E-01 3.442225857E-02
 1.077351505E+00 -1.817013445E-01 3.435318222E-02
 1.052094662E+00 -1.546194404E-01 3.271369264E-02
 1.048288940E+00 -1.499999695E-01 3.245195088E-02
 1.072828757E+00 -1.698274022E-01 3.397566093E-02
 1.078055266E+00 -1.757042555E-01 3.427336516E-02
 1.067648167E+00 -1.642790885E-01 3.364150714E-02
 1.062276148E+00 -1.580890910E-01 3.325599205E-02
 1.056484262E+00 -1.544677862E-01 3.289722740E-02
 1.090874220E+00 -2.412819354E-01 3.490123161E-02
 1.091056486E+00 -2.303079663E-01 3.501577826E-02
 1.076159081E+00 -1.954438740E-01 3.447968206E-02
 1.083379158E+00 -1.960932913E-01 3.469791656E-02
 1.090718748E+00 -2.042267573E-01 3.496462641E-02
 1.098967275E+00 -2.125792856E-01 3.518646266E-02
 1.099560366E+00 -2.208028080E-01 3.519946973E-02
 8.767124023E-01 -5.000000000E-01 3.154637362E-02
 8.476390871E-01 -4.706840117E-01 3.191418211E-02
 1.102293870E+00 -2.527803547E-01 3.480889028E-02
 1.102053525E+00 -2.646382504E-01 3.455432307E-02
 1.094513569E+00 -3.379403972E-01 3.346862464E-02
 1.079402357E+00 -3.769331040E-01 3.316295616E-02
 1.096350741E+00 -3.560319285E-01 3.334243621E-02
 1.056696868E+00 -4.226624725E-01 3.289023443E-02
 1.031174405E+00 -4.459121601E-01 3.261396360E-02
 1.079970897E+00 -3.992816817E-01 3.307525573E-02
 9.972602539E-01 -5.000000000E-01 3.173760980E-02
 1.101731241E+00 -2.771049952E-01 3.429851765E-02
 1.114624554E+00 -3.056877917E-01 3.388308176E-02
 1.115665899E+00 -2.908430829E-01 3.410834801E-02
 1.084155225E+00 -1.820888189E-01 3.457136220E-02
 1.083945277E+00 -1.889346014E-01 3.464674064E-02
 1.052281372E+00 -1.499999695E-01 3.263995681E-02
 1.072949095E+00 -1.642854259E-01 3.383883151E-02
 1.078363207E+00 -1.699232212E-01 3.416605217E-02
 1.084192721E+00 -1.758860831E-01 3.447259705E-02
 1.067711816E+00 -1.589029504E-01 3.349499539E-02
 1.060710127E+00 -1.541776458E-01 3.304881506E-02
 1.056273804E+00 -1.499999695E-01 3.281523540E-02
 1.102670604E+00 -2.286741012E-01 3.519813877E-02
 1.102486858E+00 -2.410218380E-01 3.503540578E-02
 1.091081444E+00 -1.964467637E-01 3.491623531E-02
 1.098911710E+00 -2.044181694E-01 3.515233341E-02
 1.105996854E+00 -2.208338850E-01 3.530720057E-02
 1.106812182E+00 -2.125994726E-01 3.532177877E-02
 8.465754395E-01 -5.000000000E-01 3.157923063E-02
 1.114184171E+00 -2.527327351E-01 3.487529134E-02
 1.114703165E+00 -2.643494146E-01 3.461651043E-02
 1.112614482E+00 -3.210087343E-01 3.368901685E-02
 1.111793350E+00 -3.384534785E-01 3.351970897E-02
 1.103482566E+00 -3.725416309E-01 3.325776718E-02
 1.110249716E+00 -3.559092584E-01 3.338678262E-02
 1.056909751E+00 -4.460836154E-01 3.267570978E-02
 1.080165295E+00 -4.221873902E-01 3.295599463E-02
 1.028545983E+00 -4.706956985E-01 3.211966830E-02
 1.103402438E+00 -3.980775912E-01 3.313451042E-02
 1.027397217E+00 -5.000000000E-01 3.176728106E-02
 1.115833185E+00 -2.765381895E-01 3.435910374E-02
 1.130602838E+00 -3.060217343E-01 3.389170947E-02
 1.131045139E+00 -2.903251596E-01 3.412064007E-02
 1.091135878E+00 -1.818363148E-01 3.476295837E-02
 1.091262311E+00 -1.889810969E-01 3.485281893E-02
 1.072883948E+00 -1.588910107E-01 3.367912322E-02
 1.078441479E+00 -1.641419380E-01 3.402302418E-02
 1.084147064E+00 -1.700167470E-01 3.435094493E-02
 1.090430261E+00 -1.757346334E-01 3.464853851E-02
 1.063823124E+00 -1.541542005E-01 3.318894609E-02
 1.068063237E+00 -1.543507008E-01 3.335115257E-02
 1.060266113E+00 -1.499999695E-01 3.297454397E-02
 1.114181599E+00 -2.304082882E-01 3.528931122E-02
 1.114037424E+00 -2.413492803E-01 3.511347141E-02
 1.098930151E+00 -1.964931587E-01 3.510257588E-02
 1.106975712E+00 -2.043837306E-01 3.530281811E-02
 1.115243697E+00 -2.126141319E-01 3.542202939E-02
 1.114944265E+00 -2.212591583E-01 3.538664046E-02
 1.126693315E+00 -2.634854340E-01 3.465592674E-02
 1.125597492E+00 -2.524283254E-01 3.489788951E-02
 1.130015860E+00 -3.219338899E-01 3.369974593E-02