TITLE     = "fluent21.1.0  build-id: 10179"
VARIABLES = "X"
"Y"
"Velocity Magnitude"
DATASETAUXDATA CFDA.ID1="Pressure"
DATASETAUXDATA CFDA.ID2="Density"
DATASETAUXDATA Common.DensityVar="12"
DATASETAUXDATA Common.PressureVar="3"
DATASETAUXDATA Common.UVar="5"
DATASETAUXDATA Common.VectorVarsAreVelocity="TRUE"
DATASETAUXDATA Common.ViscosityVar="14"
DATASETAUXDATA Common.VVar="7"
ZONE T="sur_out"
 STRANDID=1, SOLUTIONTIME=408.75
 Nodes=14307, Elements=14184, ZONETYPE=FEQuadrilateral
 DATAPACKING=POINT
 FACENEIGHBORCONNECTIONS=1051
 FACENEIGHBORMODE=GLOBALONETOMANY
 DT=(DOUBLE DOUBLE DOUBLE )
 9.063741353E-01 -1.533338230E-01 3.148973127E-02
 9.085549316E-01 -1.499999695E-01 3.154521635E-02
 9.045625610E-01 -1.499999695E-01 3.134630131E-02
 9.113484739E-01 -1.542039737E-01 3.181073080E-02
 9.125473633E-01 -1.499999695E-01 3.178337419E-02
 9.158872510E-01 -1.545530096E-01 3.207940851E-02
 9.165397949E-01 -1.499999695E-01 3.203593422E-02
 9.202813887E-01 -1.546971369E-01 3.232958896E-02
 9.205321655E-01 -1.499999695E-01 3.227336374E-02
 9.153732023E-01 -1.592847587E-01 3.216795721E-02
 9.105860375E-01 -1.589034663E-01 3.187519638E-02
 9.200174968E-01 -1.594914330E-01 3.243764268E-02
 9.246753578E-01 -1.547218036E-01 3.256862092E-02
 9.245245361E-01 -1.499999695E-01 3.250087953E-02
 9.196650126E-01 -1.643875110E-01 3.253377525E-02
 9.149934157E-01 -1.641505016E-01 3.225827101E-02
 9.247319267E-01 -1.595607292E-01 3.269639586E-02
 9.291435651E-01 -1.546135919E-01 3.280105261E-02
 9.285169678E-01 -1.499999695E-01 3.272164976E-02
 9.189842873E-01 -1.693168603E-01 3.261102110E-02
 9.151122900E-01 -1.691581358E-01 3.235689222E-02
 9.246431338E-01 -1.645467493E-01 3.280620983E-02
 9.295641308E-01 -1.594556999E-01 3.294922159E-02
 9.337923174E-01 -1.542675551E-01 3.302470128E-02
 9.325093994E-01 -1.499999695E-01 3.293274804E-02
 9.167942972E-01 -1.739748461E-01 3.256678740E-02
 9.243358033E-01 -1.697051442E-01 3.289433385E-02
 9.298087871E-01 -1.644979192E-01 3.307796537E-02
 9.345369575E-01 -1.591321581E-01 3.319289173E-02
 9.365017700E-01 -1.499999695E-01 3.310338693E-02
 9.389513414E-01 -1.533187119E-01 3.324969664E-02
 9.236803391E-01 -1.752162271E-01 3.296766898E-02
 9.300185846E-01 -1.697216903E-01 3.319721553E-02
 9.349695572E-01 -1.642417479E-01 3.333233644E-02
 9.397825131E-01 -1.585509680E-01 3.342968284E-02
 9.404941406E-01 -1.499999695E-01 3.325927475E-02
 9.303635284E-01 -1.753017109E-01 3.331209859E-02
 9.232161545E-01 -1.818583126E-01 3.305331611E-02
 9.163281153E-01 -1.813740034E-01 3.267785552E-02
 9.355252294E-01 -1.693559242E-01 3.345307375E-02
 9.399633246E-01 -1.639624724E-01 3.357214513E-02
 9.441600496E-01 -1.537686594E-01 3.349162550E-02
 9.456402443E-01 -1.577784576E-01 3.367727077E-02
 9.444865723E-01 -1.499999695E-01 3.344032694E-02
 9.301936990E-01 -1.820288982E-01 3.341751614E-02
 9.375023765E-01 -1.742006914E-01 3.365355106E-02
 9.226345849E-01 -1.887680603E-01 3.316309140E-02
 9.156516954E-01 -1.882958119E-01 3.278896468E-02
 9.395692581E-01 -1.692421958E-01 3.367426493E-02
 9.454886739E-01 -1.637986387E-01 3.381714822E-02
 9.475435346E-01 -1.539670303E-01 3.366184057E-02
 9.484789429E-01 -1.499999695E-01 3.361877115E-02
 9.298106929E-01 -1.890515631E-01 3.352498263E-02
 9.373303169E-01 -1.818673785E-01 3.376291064E-02
 9.146945579E-01 -1.951420841E-01 3.292905196E-02
 9.218328787E-01 -1.958039722E-01 3.329736302E-02
 9.452493199E-01 -1.694314229E-01 3.392279615E-02
 9.511950355E-01 -1.587907318E-01 3.394585161E-02
 9.510647509E-01 -1.640042044E-01 3.406070242E-02
 9.518771220E-01 -1.543079604E-01 3.384139463E-02
 9.524713745E-01 -1.499999695E-01 3.379016977E-02
 9.292868377E-01 -1.962430231E-01 3.365390034E-02
 9.370960359E-01 -1.891317932E-01 3.387127333E-02
 9.447235495E-01 -1.752362476E-01 3.400634665E-02
 9.445091721E-01 -1.820998357E-01 3.409367923E-02
 9.207163849E-01 -2.030311773E-01 3.345803180E-02
 9.148725468E-01 -2.026967259E-01 3.313939372E-02
 9.511988423E-01 -1.694421555E-01 3.418207674E-02
 9.561771036E-01 -1.590482617E-01 3.414943044E-02
 9.563496295E-01 -1.639608538E-01 3.427517913E-02
 9.562857932E-01 -1.544540392E-01 3.402129354E-02
 9.564637451E-01 -1.499999695E-01 3.395697369E-02
 9.368725146E-01 -1.964014959E-01 3.400006639E-02
 9.286355164E-01 -2.037008615E-01 3.380866384E-02
 9.443383146E-01 -1.892000339E-01 3.419622350E-02
 9.516133455E-01 -1.752047448E-01 3.429686147E-02
 9.516099804E-01 -1.820850048E-01 3.439934360E-02
 9.175400052E-01 -2.099185105E-01 3.351015209E-02
 9.568465485E-01 -1.691022408E-01 3.439296867E-02
 9.608675286E-01 -1.589544656E-01 3.432202993E-02
 9.612956248E-01 -1.636571894E-01 3.445683103E-02
 9.606200050E-01 -1.544334409E-01 3.418141989E-02
 9.604561768E-01 -1.499999695E-01 3.411025043E-02
 9.442580699E-01 -1.963791091E-01 3.431372360E-02
 9.368548601E-01 -2.038575609E-01 3.416373099E-02
 9.276997878E-01 -2.116763707E-01 3.397267288E-02
 9.514582129E-01 -1.892047088E-01 3.449541457E-02
 9.588880322E-01 -1.740253153E-01 3.457023942E-02
 9.588240880E-01 -1.818227195E-01 3.467768939E-02
 9.609441486E-01 -1.689537052E-01 3.456631147E-02
 9.653773338E-01 -1.586410441E-01 3.446094915E-02
 9.670170424E-01 -1.627240439E-01 3.463301670E-02
 9.648728507E-01 -1.542952404E-01 3.432511447E-02
 9.644485474E-01 -1.499999695E-01 3.425131592E-02
 9.446877757E-01 -2.035377877E-01 3.445234790E-02
 9.511387018E-01 -1.963991800E-01 3.459586603E-02
 9.372382573E-01 -2.118070106E-01 3.433571189E-02
 9.273936275E-01 -2.212738868E-01 3.410670082E-02
 9.173436780E-01 -2.209147683E-01 3.373868833E-02
 9.587182113E-01 -1.891619236E-01 3.477211522E-02
 9.662120305E-01 -1.750431663E-01 3.484714625E-02
 9.660752234E-01 -1.820083639E-01 3.493520545E-02
 9.667444453E-01 -1.690038490E-01 3.475569847E-02
 9.687604493E-01 -1.585520757E-01 3.458604440E-02
 9.690536032E-01 -1.540762192E-01 3.445605531E-02
 9.684409790E-01 -1.499999695E-01 3.438062280E-02
 9.473418218E-01 -2.103881614E-01 3.467700432E-02
 9.503205897E-01 -2.035624704E-01 3.469343629E-02
 9.585223694E-01 -1.964824224E-01 3.486442087E-02
 9.370974519E-01 -2.213380127E-01 3.444303303E-02
 9.274657950E-01 -2.311744584E-01 3.415310016E-02
 9.174098815E-01 -2.312835999E-01 3.383107015E-02
 9.660488459E-01 -1.891667801E-01 3.502619047E-02
 9.731355162E-01 -1.751248668E-01 3.506123301E-02
 9.732086682E-01 -1.819903500E-01 3.516004400E-02
 9.728042098E-01 -1.692841454E-01 3.495119668E-02
 9.729120411E-01 -1.637297756E-01 3.484291457E-02
 9.736054537E-01 -1.587291759E-01 3.473171430E-02
 9.741509171E-01 -1.534289073E-01 3.458940474E-02
 9.724333496E-01 -1.499999695E-01 3.448180833E-02
 9.470720462E-01 -2.211245157E-01 3.474589378E-02
 9.581385170E-01 -2.039606401E-01 3.495112371E-02
 9.660989304E-01 -1.964433305E-01 3.511542217E-02
 9.367641620E-01 -2.311902646E-01 3.443627494E-02
 9.283813001E-01 -2.409853805E-01 3.410289954E-02
 9.179457012E-01 -2.416575019E-01 3.381062593E-02
 9.732910748E-01 -1.890776735E-01 3.524793725E-02
 9.803246555E-01 -1.741424713E-01 3.524661704E-02
 9.803328513E-01 -1.817290196E-01 3.534944008E-02
 9.784331753E-01 -1.692470078E-01 3.510444860E-02
 9.782331320E-01 -1.641461778E-01 3.500058867E-02
 9.786128642E-01 -1.591705864E-01 3.488287001E-02
 9.792477509E-01 -1.543140108E-01 3.476071943E-02
 9.764257813E-01 -1.499999695E-01 3.458086254E-02
 9.573904399E-01 -2.119090223E-01 3.501416452E-02
 9.467274024E-01 -2.313271992E-01 3.469458841E-02
 9.571384466E-01 -2.214621281E-01 3.502007825E-02
 9.663389475E-01 -2.039076741E-01 3.520359372E-02
 9.734896398E-01 -1.962497895E-01 3.532945893E-02
 9.358775141E-01 -2.409695196E-01 3.432591614E-02
 9.322361904E-01 -2.501400422E-01 3.407034333E-02
 9.191904432E-01 -2.524483661E-01 3.372627190E-02
 9.804112004E-01 -1.889173528E-01 3.543467278E-02
 9.873459249E-01 -1.752232714E-01 3.542796462E-02
 9.873888338E-01 -1.818531253E-01 3.551053968E-02
 9.823758098E-01 -1.693881911E-01 3.522312081E-02
 9.829874433E-01 -1.644041921E-01 3.512966471E-02
 9.833790799E-01 -1.594618640E-01 3.501263134E-02
 9.804181519E-01 -1.499999695E-01 3.470120530E-02
 9.838183274E-01 -1.546364899E-01 3.488083155E-02
 9.669599122E-01 -2.118425983E-01 3.526639091E-02
 9.461642621E-01 -2.415763608E-01 3.453115202E-02
 9.570313596E-01 -2.314700704E-01 3.493014005E-02
 9.671102830E-01 -2.213833227E-01 3.524947462E-02
 9.741710821E-01 -2.034136964E-01 3.540029199E-02
 9.804011012E-01 -1.960898447E-01 3.550352028E-02
 9.068370381E-01 -2.419266309E-01 3.347903533E-02
 9.067628360E-01 -2.530357910E-01 3.340931012E-02
 9.198820597E-01 -2.649852497E-01 3.360527058E-02
 9.327691378E-01 -2.641116002E-01 3.386615748E-02
 9.876159369E-01 -1.887726030E-01 3.558931771E-02
 9.939136069E-01 -1.751529411E-01 3.554865963E-02
 9.942586497E-01 -1.816650765E-01 3.563569455E-02
 9.877585564E-01 -1.697317691E-01 3.534277681E-02
 9.879718604E-01 -1.645903207E-01 3.524239315E-02
 9.881076958E-01 -1.596093971E-01 3.512143172E-02
 9.844105835E-01 -1.499999695E-01 3.481243673E-02
 9.882419429E-01 -1.547528553E-01 3.498096815E-02
 9.770372359E-01 -2.102161902E-01 3.548666932E-02
 9.450411483E-01 -2.522147691E-01 3.430595539E-02
 9.570537168E-01 -2.418094098E-01 3.474270154E-02
 9.673297280E-01 -2.313318819E-01 3.512625984E-02
 9.770854882E-01 -2.209457359E-01 3.542554028E-02
 9.798368819E-01 -2.032983154E-01 3.554459602E-02
 9.878709144E-01 -1.959099152E-01 3.564982856E-02
 9.067203562E-01 -2.653684258E-01 3.331658284E-02
 9.447286606E-01 -2.644611246E-01 3.407560825E-02
 9.343255005E-01 -2.768840028E-01 3.371116753E-02
 9.208962641E-01 -2.780353609E-01 3.348223078E-02
 9.947876259E-01 -1.883931451E-01 3.571046211E-02
 1.000690555E+00 -1.739601030E-01 3.563299617E-02
 1.000926159E+00 -1.812086260E-01 3.572540285E-02
 9.933389181E-01 -1.697106541E-01 3.545043367E-02
 9.930365016E-01 -1.645875971E-01 3.534042573E-02
 9.928402608E-01 -1.596098277E-01 3.521352306E-02
 9.884029541E-01 -1.499999695E-01 3.490649989E-02
 9.926387885E-01 -1.547523025E-01 3.506651191E-02
 9.571221407E-01 -2.527076542E-01 3.450139966E-02
 9.679851611E-01 -2.415025012E-01 3.491956578E-02
 9.773058574E-01 -2.310127290E-01 3.527308037E-02
 9.871328151E-01 -2.115806049E-01 3.564813430E-02
 9.869016203E-01 -2.211811315E-01 3.554606816E-02
 9.877571420E-01 -2.034852459E-01 3.567581582E-02
 9.957147516E-01 -1.952966430E-01 3.576642436E-02
 9.067031130E-01 -2.785026077E-01 3.322591689E-02
 9.572339406E-01 -2.647169730E-01 3.424876821E-02
 9.439883844E-01 -2.768074932E-01 3.387572420E-02
 9.397110436E-01 -2.885719396E-01 3.363609063E-02
 9.227243225E-01 -2.917815427E-01 3.337759781E-02
 1.001551095E+00 -1.878025098E-01 3.579131244E-02
 9.986329747E-01 -1.693362215E-01 3.552346611E-02
 1.007491478E+00 -1.748834593E-01 3.571609080E-02
 1.007192820E+00 -1.813851911E-01 3.578862024E-02
 9.979870857E-01 -1.644108945E-01 3.541773220E-02
 9.975700752E-01 -1.594697491E-01 3.528883944E-02
 9.923953857E-01 -1.499999695E-01 3.498830805E-02
 9.970696896E-01 -1.546364409E-01 3.513848558E-02
 9.692933714E-01 -2.520998592E-01 3.466881218E-02
 9.783001551E-01 -2.407695002E-01 3.506241032E-02
 9.866085367E-01 -2.310306763E-01 3.536087137E-02
 9.968483057E-01 -2.114502816E-01 3.573922654E-02
 9.968185359E-01 -2.211843737E-01 3.561023398E-02
 9.962019609E-01 -2.031574062E-01 3.578361417E-02
 1.004003505E+00 -1.937188692E-01 3.584713704E-02
 9.067015748E-01 -2.926002558E-01 3.314343669E-02
 8.925123049E-01 -2.780349790E-01 3.296076882E-02
 8.935580071E-01 -2.649807093E-01 3.302019755E-02
 9.699907934E-01 -2.643649974E-01 3.440018675E-02
 9.572165011E-01 -2.773098890E-01 3.401188819E-02
 9.407412899E-01 -3.067220843E-01 3.345383070E-02
 9.236165758E-01 -3.079155978E-01 3.326898468E-02
 1.006470294E+00 -1.878372613E-01 3.584136494E-02
 1.002488555E+00 -1.692192670E-01 3.557849757E-02
 1.014157245E+00 -1.748517639E-01 3.575013692E-02
 1.013860520E+00 -1.815634688E-01 3.582170394E-02
 1.007913779E+00 -1.693151555E-01 3.562951459E-02
 1.002689366E+00 -1.642182297E-01 3.547604605E-02
 1.002364226E+00 -1.592009916E-01 3.534546652E-02
 9.963877563E-01 -1.499999695E-01 3.505818739E-02
 1.001666064E+00 -1.543141615E-01 3.519383050E-02
 9.821512810E-01 -2.498188581E-01 3.483863360E-02
 9.857583208E-01 -2.407439126E-01 3.512799308E-02
 9.965617633E-01 -2.312002400E-01 3.539603415E-02
 1.007272098E+00 -2.098788531E-01 3.578828320E-02
 1.007023092E+00 -2.209161968E-01 3.561782257E-02
 1.004499131E+00 -2.023923531E-01 3.584839784E-02
 9.067097124E-01 -3.083706348E-01 3.306568447E-02
 8.906812866E-01 -2.917799313E-01 3.290094971E-02
 8.790728965E-01 -2.768838417E-01 3.272358678E-02
 8.806486945E-01 -2.641027523E-01 3.273353237E-02
 9.826148072E-01 -2.635783643E-01 3.450638452E-02
 9.709297194E-01 -2.770095879E-01 3.414761259E-02
 9.567757205E-01 -2.906645749E-01 3.379660150E-02
 9.243357852E-01 -3.248018454E-01 3.316348346E-02
 9.419928547E-01 -3.239108556E-01 3.331641785E-02
 9.576728538E-01 -3.064869275E-01 3.360496024E-02
 1.013112649E+00 -1.883809612E-01 3.586830196E-02
 1.013771822E+00 -1.691265416E-01 3.566074703E-02
 1.021468092E+00 -1.737549512E-01 3.574128096E-02
 1.020947098E+00 -1.815627078E-01 3.582171056E-02
 1.007889739E+00 -1.640053539E-01 3.552154131E-02
 1.007503466E+00 -1.587769358E-01 3.538915081E-02
 1.000380188E+00 -1.499999695E-01 3.511377514E-02
 1.006827689E+00 -1.534067646E-01 3.522350184E-02
 9.960096374E-01 -2.413572621E-01 3.512943837E-02
 1.006899339E+00 -2.312336484E-01 3.538604224E-02
 1.017452126E+00 -2.118270622E-01 3.573411141E-02
 1.017115003E+00 -2.213667716E-01 3.556405060E-02
 1.010537838E+00 -2.028083718E-01 3.586348263E-02
 1.011786483E+00 -1.952493254E-01 3.588243767E-02
 9.067249671E-01 -3.251146642E-01 3.299644732E-02
 8.898032533E-01 -3.079100332E-01 3.285427101E-02
 8.736865310E-01 -2.885695734E-01 3.263402450E-02
 9.944390389E-01 -2.639962913E-01 3.454288754E-02
 9.948606783E-01 -2.519014778E-01 3.483661096E-02
 9.839669064E-01 -2.760570244E-01 3.425383394E-02
 9.725871000E-01 -2.902282876E-01 3.392544358E-02
 9.594856224E-01 -3.227741688E-01 3.344604545E-02
 9.434661810E-01 -3.413816075E-01 3.320256395E-02
 9.250363948E-01 -3.423088245E-01 3.307457605E-02
 9.737675106E-01 -3.057289841E-01 3.372005123E-02
 1.020312615E+00 -1.888121733E-01 3.586210894E-02
 1.019569441E+00 -1.686170447E-01 3.566097221E-02
 1.013419875E+00 -1.636679744E-01 3.554882409E-02
 1.028728477E+00 -1.752319206E-01 3.572562573E-02
 1.028139050E+00 -1.820969622E-01 3.578722002E-02
 1.012899502E+00 -1.584624384E-01 3.541873682E-02
 1.004372559E+00 -1.499999695E-01 3.514178053E-02
 1.012206376E+00 -1.539245205E-01 3.528491555E-02
 1.006892388E+00 -2.415815950E-01 3.511055961E-02
 1.017205542E+00 -2.312355109E-01 3.532943618E-02
 1.026820200E+00 -2.123498845E-01 3.563994147E-02
 1.026816694E+00 -2.214929710E-01 3.546302626E-02
 1.018613808E+00 -2.037115989E-01 3.582850078E-02
 1.019495427E+00 -1.960691637E-01 3.586463239E-02
 9.067443124E-01 -3.425829471E-01 3.293586371E-02
 8.891142460E-01 -3.247925433E-01 3.282130833E-02
 8.726743515E-01 -3.067092743E-01 3.264137492E-02
 1.006909666E+00 -2.524179407E-01 3.481671734E-02
 1.006889704E+00 -2.643276282E-01 3.452907982E-02
 9.934625401E-01 -2.760862675E-01 3.428958675E-02
 9.888897497E-01 -2.874654172E-01 3.404661640E-02
 9.624079187E-01 -3.395033110E-01 3.331470599E-02
 9.759392371E-01 -3.211722543E-01 3.355073497E-02
 9.444411152E-01 -3.597867272E-01 3.310380358E-02
 9.256142291E-01 -3.604728859E-01 3.299887225E-02
 9.889059610E-01 -3.049446257E-01 3.378553527E-02
 1.027681045E+00 -1.891904668E-01 3.581843769E-02
 1.023938197E+00 -1.685113190E-01 3.565368515E-02
 1.019085204E+00 -1.630263163E-01 3.555403372E-02
 1.035479929E+00 -1.757470189E-01 3.566515881E-02
 1.035189890E+00 -1.823696089E-01 3.571710441E-02
 1.029818721E+00 -1.693054744E-01 3.563856407E-02
 1.018436000E+00 -1.574394115E-01 3.541577023E-02
 1.008364990E+00 -1.499999695E-01 3.517398226E-02
 1.016718391E+00 -1.538039619E-01 3.529870924E-02
 1.012357361E+00 -1.499999695E-01 3.521906607E-02
 1.017811475E+00 -2.413044832E-01 3.505666319E-02
 1.027078813E+00 -2.310351562E-01 3.523655032E-02
 1.026984468E+00 -2.041441943E-01 3.575367788E-02
 1.036061047E+00 -2.119493435E-01 3.551042621E-02
 1.036308844E+00 -2.212337423E-01 3.532646228E-02
 1.027275139E+00 -1.964907914E-01 3.580845126E-02
 9.067655482E-01 -3.606977544E-01 3.288335015E-02
 8.884516377E-01 -3.422963867E-01 3.279075099E-02
 8.714539094E-01 -3.238906114E-01 3.264459794E-02
 1.019079774E+00 -2.518174668E-01 3.476998396E-02
 1.019695309E+00 -2.640126327E-01 3.448859579E-02
 1.006568766E+00 -2.767817507E-01 3.426659570E-02
 9.826511967E-01 -3.352695152E-01 3.342673926E-02
 9.640355210E-01 -3.585531410E-01 3.319649635E-02
 9.879115907E-01 -3.208320950E-01 3.360041250E-02
 9.446452900E-01 -3.787246193E-01 3.302067816E-02
 9.262119695E-01 -3.791015272E-01 3.293655979E-02
 1.005069293E+00 -3.057074201E-01 3.379684796E-02
 1.005526241E+00 -2.900108809E-01 3.402342391E-02
 1.034990972E+00 -1.893434817E-01 3.573720953E-02
 1.024888044E+00 -1.623260025E-01 3.553320676E-02
 1.035867906E+00 -1.697907632E-01 3.558898389E-02
 1.042143948E+00 -1.755737398E-01 3.557025652E-02
 1.042153350E+00 -1.822870006E-01 3.561115132E-02
 1.030737879E+00 -1.636732847E-01 3.553247209E-02
 1.023587639E+00 -1.580366065E-01 3.543217985E-02
 1.019862928E+00 -1.538203832E-01 3.530834523E-02
 1.016349792E+00 -1.499999695E-01 3.524181498E-02
 1.028093704E+00 -2.405739224E-01 3.499382137E-02
 1.036277261E+00 -2.308367923E-01 3.510681662E-02
 1.035242738E+00 -2.040331018E-01 3.564122032E-02
 1.045877857E+00 -2.101843784E-01 3.534496685E-02
 1.046103683E+00 -2.206594954E-01 3.514887618E-02
 1.034947869E+00 -1.965592114E-01 3.571389520E-02
 9.067857807E-01 -3.793345869E-01 3.283970957E-02
 8.879157122E-01 -3.604570803E-01 3.276342527E-02
 8.700191805E-01 -3.413556752E-01 3.264387997E-02
 1.031952759E+00 -2.495068194E-01 3.470766816E-02
 1.032438745E+00 -2.631898499E-01 3.441112904E-02
 1.020415262E+00 -2.766127875E-01 3.422833611E-02
 9.843315031E-01 -3.566799881E-01 3.326464933E-02
 9.649483986E-01 -3.781852835E-01 3.309324947E-02
 1.004192579E+00 -3.218260145E-01 3.360149871E-02
 9.429487128E-01 -3.977789729E-01 3.295402785E-02
 9.277622974E-01 -3.978029262E-01 3.288915769E-02
 1.021597073E+00 -2.899476318E-01 3.398955409E-02
 1.021659273E+00 -3.058968806E-01 3.377068342E-02
 1.042145902E+00 -1.892670184E-01 3.562281365E-02
 1.036390991E+00 -1.642355829E-01 3.549107777E-02
 1.041791684E+00 -1.698544498E-01 3.551012905E-02
 1.049160449E+00 -1.744134297E-01 3.542733895E-02
 1.049140680E+00 -1.819405581E-01 3.547297372E-02
 1.027073125E+00 -1.583287164E-01 3.542873371E-02
 1.031848296E+00 -1.587806037E-01 3.541516648E-02
 1.023938519E+00 -1.540039568E-01 3.531934467E-02
 1.020342163E+00 -1.499999695E-01 3.525276463E-02
 1.035531769E+00 -2.404492309E-01 3.488935850E-02
 1.046259791E+00 -2.306221716E-01 3.493387244E-02
 1.042988800E+00 -2.034855522E-01 3.552140599E-02
 1.055973690E+00 -2.206014222E-01 3.493008691E-02
 1.055680260E+00 -2.114715847E-01 3.509173830E-02
 1.042291016E+00 -1.963813606E-01 3.559221585E-02
 9.068004778E-01 -3.984457815E-01 3.280164001E-02
 8.873592113E-01 -3.790769056E-01 3.274098082E-02
 8.690841358E-01 -3.597593576E-01 3.264272471E-02
 1.044344285E+00 -2.634791002E-01 3.428373727E-02
 1.044669175E+00 -2.514827719E-01 3.450310339E-02
 1.033798499E+00 -2.756601935E-01 3.417844454E-02
 1.002665734E+00 -3.381599278E-01 3.343721705E-02
 1.003879218E+00 -3.561544556E-01 3.330381913E-02
 9.867281156E-01 -3.766466257E-01 3.315033348E-02
 9.643301983E-01 -3.987488889E-01 3.300609472E-02
 1.021131553E+00 -3.224610278E-01 3.358149586E-02
 9.350282856E-01 -4.157873574E-01 3.284641742E-02
 1.038785823E+00 -2.872267166E-01 3.393748709E-02
 1.038829249E+00 -3.053801849E-01 3.370555620E-02
 1.049153346E+00 -1.890904333E-01 3.547776833E-02
 1.037091881E+00 -1.589661002E-01 3.537358786E-02
 1.041873980E+00 -1.644796116E-01 3.542531224E-02
 1.047287922E+00 -1.695766075E-01 3.541741005E-02
 1.056042522E+00 -1.754239693E-01 3.527378483E-02
 1.056108855E+00 -1.819876856E-01 3.530663602E-02
 1.027958339E+00 -1.541201145E-01 3.531362713E-02
 1.032490655E+00 -1.541073531E-01 3.529041602E-02
 1.024334595E+00 -1.499999695E-01 3.525786676E-02
 1.045828857E+00 -2.408699519E-01 3.471706195E-02
 1.056886297E+00 -2.301017832E-01 3.472325926E-02
 1.048555493E+00 -2.033559164E-01 3.538394720E-02
 1.056276938E+00 -2.035330467E-01 3.519339206E-02
 1.065241950E+00 -2.201430435E-01 3.471812807E-02
 1.064593588E+00 -2.115532101E-01 3.485381220E-02
 1.049087521E+00 -1.962346501E-01 3.544414982E-02
 9.068077271E-01 -4.187775542E-01 3.274602668E-02
 8.858366386E-01 -3.977729650E-01 3.272033433E-02
 8.689134970E-01 -3.786995827E-01 3.264432521E-02
 1.056744674E+00 -2.636151208E-01 3.411955483E-02
 1.056592794E+00 -2.520383483E-01 3.431327641E-02
 1.043556267E+00 -2.755225941E-01 3.408668287E-02
 1.019946789E+00 -3.393549145E-01 3.342415583E-02
 1.017854444E+00 -3.566881638E-01 3.330145010E-02
 1.010607883E+00 -3.729733136E-01 3.319466341E-02
 9.869848428E-01 -3.987098325E-01 3.305385527E-02
 9.623207044E-01 -4.201913732E-01 3.289423091E-02
 1.038704166E+00 -3.226216081E-01 3.352731016E-02
 1.056166039E+00 -3.057322725E-01 3.359758761E-02
 1.056148025E+00 -2.896229789E-01 3.376412229E-02
 1.056244605E+00 -1.889629742E-01 3.530258832E-02
 1.037840867E+00 -1.534920315E-01 3.522660340E-02
 1.042299371E+00 -1.593207424E-01 3.531493157E-02
 1.047032075E+00 -1.644912176E-01 3.534242028E-02
 1.051187172E+00 -1.695522735E-01 3.532555619E-02
 1.062354506E+00 -1.755390303E-01 3.510220643E-02
 1.063013012E+00 -1.816560238E-01 3.511286431E-02
 1.056565979E+00 -1.697809450E-01 3.520954637E-02
 1.032319336E+00 -1.499999695E-01 3.522826707E-02
 1.028327026E+00 -1.499999695E-01 3.525063081E-02
 1.056878557E+00 -2.409142160E-01 3.451368759E-02
 1.068463140E+00 -2.282225680E-01 3.447714540E-02
 1.056352823E+00 -1.961344273E-01 3.526188591E-02
 1.064509865E+00 -2.031731251E-01 3.496333517E-02
 1.071920496E+00 -2.201667041E-01 3.450840518E-02
 1.072909576E+00 -2.114014950E-01 3.460489615E-02
 9.068182925E-01 -4.449716623E-01 3.255882452E-02
 9.353019866E-01 -4.443859605E-01 3.262085030E-02
 8.785745141E-01 -4.157589450E-01 3.265692612E-02
 8.706354072E-01 -3.977550713E-01 3.264689066E-02
 1.057296869E+00 -2.756371220E-01 3.393574645E-02
 1.068762050E+00 -2.631930255E-01 3.396345288E-02
 1.068113809E+00 -2.520448856E-01 3.411589127E-02
 1.038129227E+00 -3.400674631E-01 3.338120747E-02
 1.036906240E+00 -3.581489277E-01 3.326204496E-02
 1.010056103E+00 -3.981865934E-01 3.307455639E-02
 9.867248712E-01 -4.211767681E-01 3.293043425E-02
 9.630483123E-01 -4.448957992E-01 3.266941964E-02
 1.056685842E+00 -3.224522660E-01 3.344296765E-02
 1.072977162E+00 -3.053723308E-01 3.346256185E-02
 1.072331383E+00 -2.897856007E-01 3.360060695E-02
 1.063356575E+00 -1.886713248E-01 3.509836996E-02
 1.043017987E+00 -1.543594811E-01 3.518724742E-02
 1.036311768E+00 -1.499999695E-01 3.518342828E-02
 1.047235427E+00 -1.594574017E-01 3.524003017E-02
 1.051757336E+00 -1.644485769E-01 3.524598231E-02
 1.068154472E+00 -1.752695380E-01 3.493325329E-02
 1.070240079E+00 -1.804360437E-01 3.487865508E-02
 1.062213277E+00 -1.698100366E-01 3.505814741E-02
 1.056854319E+00 -1.643569901E-01 3.512550565E-02
 1.068243924E+00 -2.405741461E-01 3.428553433E-02
 1.063790127E+00 -1.958260814E-01 3.504814394E-02
 1.073363753E+00 -2.017777103E-01 3.469374905E-02
 1.081062929E+00 -2.208840087E-01 3.424641706E-02
 1.081706943E+00 -2.120873367E-01 3.432713614E-02
 9.362842762E-01 -4.718369234E-01 3.208461118E-02
 9.068322395E-01 -4.721921314E-01 3.203649704E-02
 8.783224290E-01 -4.443622770E-01 3.248908563E-02
 8.492548181E-01 -3.986902284E-01 3.256871037E-02
 8.486096674E-01 -3.781370358E-01 3.254762192E-02
 1.072735630E+00 -2.736733122E-01 3.375866712E-02
 1.077448897E+00 -2.633745018E-01 3.380037071E-02
 1.078862758E+00 -2.523156789E-01 3.390515344E-02
 1.056943285E+00 -3.401021660E-01 3.331395039E-02
 1.034521531E+00 -3.771907295E-01 3.316044191E-02
 1.057020784E+00 -3.585457711E-01 3.320824768E-02
 1.009040160E+00 -4.215816174E-01 3.294324864E-02
 1.033551693E+00 -3.994435251E-01 3.306387728E-02
 9.884289146E-01 -4.441307982E-01 3.272110546E-02
 9.659882411E-01 -4.707156211E-01 3.213724634E-02
 1.074892355E+00 -3.212620958E-01 3.333422567E-02
 1.088510830E+00 -3.046479872E-01 3.333322179E-02
 1.087453778E+00 -2.904109471E-01 3.342674113E-02
 1.070373036E+00 -1.882503855E-01 3.487879637E-02
 1.047653238E+00 -1.546105356E-01 3.511998042E-02
 1.040304199E+00 -1.499999695E-01 3.515172749E-02
 1.044296631E+00 -1.499999695E-01 3.512136948E-02
 1.051986189E+00 -1.594000755E-01 3.514821938E-02
 1.072318328E+00 -1.753084482E-01 3.477581570E-02
 1.067704976E+00 -1.697946297E-01 3.489473333E-02
 1.062245693E+00 -1.641336856E-01 3.498158312E-02
 1.056889980E+00 -1.590769730E-01 3.503447235E-02
 1.080023031E+00 -2.301271631E-01 3.415140378E-02
 1.079505182E+00 -2.410784080E-01 3.403143480E-02
 1.070921499E+00 -1.953245128E-01 3.483996762E-02
 1.082295915E+00 -2.035468869E-01 3.437873515E-02
 1.090514102E+00 -2.125048606E-01 3.403461304E-02
 1.090571953E+00 -2.211275539E-01 3.395654965E-02
 9.068493652E-01 -5.000000000E-01 3.166388996E-02
 9.369863281E-01 -5.000000000E-01 3.170460242E-02
 8.773708194E-01 -4.718239041E-01 3.199370254E-02
 8.505491460E-01 -4.448394396E-01 3.242771692E-02
 8.512703688E-01 -4.201268575E-01 3.256217325E-02
 1.090375854E+00 -2.526822489E-01 3.367244856E-02
 1.089432930E+00 -2.642825773E-01 3.359289114E-02
 1.075882251E+00 -3.392640091E-01 3.322501947E-02
 1.056980474E+00 -3.781590665E-01 3.311756591E-02
 1.077163551E+00 -3.577008366E-01 3.313442345E-02
 1.032671293E+00 -4.224250763E-01 3.293197327E-02
 1.006503840E+00 -4.444077377E-01 3.272496994E-02
 1.056845323E+00 -3.999011951E-01 3.303178069E-02
 9.973718804E-01 -4.660063752E-01 3.226059874E-02
 9.671232910E-01 -5.000000000E-01 3.175927405E-02
 1.094021447E+00 -3.179296618E-01 3.320171663E-02
 1.087838950E+00 -2.763763113E-01 3.351576033E-02
 1.099575997E+00 -3.047890944E-01 3.320479253E-02
 1.101122420E+00 -2.908057603E-01 3.325016820E-02
 1.076961735E+00 -1.885809825E-01 3.464700843E-02
 1.077351505E+00 -1.817013445E-01 3.463171042E-02
 1.052094662E+00 -1.546194404E-01 3.503689009E-02
 1.048288940E+00 -1.499999695E-01 3.505730617E-02
 1.072828757E+00 -1.698274022E-01 3.472200953E-02
 1.078055266E+00 -1.757042555E-01 3.458605282E-02
 1.067648167E+00 -1.642790885E-01 3.482447302E-02
 1.062276148E+00 -1.580890910E-01 3.487638615E-02
 1.056484262E+00 -1.544677862E-01 3.493894080E-02
 1.090874220E+00 -2.412819354E-01 3.376103137E-02
 1.091056486E+00 -2.303079663E-01 3.385852643E-02
 1.076159081E+00 -1.954438740E-01 3.463850729E-02
 1.083379158E+00 -1.960932913E-01 3.439150449E-02
 1.090718748E+00 -2.042267573E-01 3.408331515E-02
 1.098967275E+00 -2.125792856E-01 3.375620812E-02
 1.099560366E+00 -2.208028080E-01 3.370118767E-02
 8.767124023E-01 -5.000000000E-01 3.163425744E-02
 8.476390871E-01 -4.706840117E-01 3.196849863E-02
 1.102293870E+00 -2.527803547E-01 3.342641265E-02
 1.102053525E+00 -2.646382504E-01 3.336622644E-02
 1.094513569E+00 -3.379403972E-01 3.312009460E-02
 1.079402357E+00 -3.769331040E-01 3.305710258E-02
 1.096350741E+00 -3.560319285E-01 3.305755318E-02
 1.056696868E+00 -4.226624725E-01 3.290752017E-02
 1.031174405E+00 -4.459121601E-01 3.268391466E-02
 1.079970897E+00 -3.992816817E-01 3.298512420E-02
 9.972602539E-01 -5.000000000E-01 3.179430919E-02
 1.101731241E+00 -2.771049952E-01 3.330589979E-02
 1.114624554E+00 -3.056877917E-01 3.304999129E-02
 1.115665899E+00 -2.908430829E-01 3.306623661E-02
 1.084155225E+00 -1.820888189E-01 3.438020444E-02
 1.083945277E+00 -1.889346014E-01 3.439020407E-02
 1.052281372E+00 -1.499999695E-01 3.497923346E-02
 1.072949095E+00 -1.642854259E-01 3.464962222E-02
 1.078363207E+00 -1.699232212E-01 3.452806868E-02
 1.084192721E+00 -1.758860831E-01 3.435340242E-02
 1.067711816E+00 -1.589029504E-01 3.473423202E-02
 1.060710127E+00 -1.541776458E-01 3.483289025E-02
 1.056273804E+00 -1.499999695E-01 3.488947306E-02
 1.102670604E+00 -2.286741012E-01 3.354758179E-02
 1.102486858E+00 -2.410218380E-01 3.348648638E-02
 1.091081444E+00 -1.964467637E-01 3.410464243E-02
 1.098911710E+00 -2.044181694E-01 3.379184332E-02
 1.105996854E+00 -2.208338850E-01 3.347623129E-02
 1.106812182E+00 -2.125994726E-01 3.348868864E-02
 8.465754395E-01 -5.000000000E-01 3.162824420E-02
 1.114184171E+00 -2.527327351E-01 3.317985860E-02
 1.114703165E+00 -2.643494146E-01 3.313924108E-02
 1.112614482E+00 -3.210087343E-01 3.303096511E-02
 1.111793350E+00 -3.384534785E-01 3.300374726E-02
 1.103482566E+00 -3.725416309E-01 3.297764249E-02
 1.110249716E+00 -3.559092584E-01 3.297719176E-02
 1.056909751E+00 -4.460836154E-01 3.265992045E-02
 1.080165295E+00 -4.221873902E-01 3.287449816E-02
 1.028545983E+00 -4.706956985E-01 3.214417451E-02
 1.103402438E+00 -3.980775912E-01 3.292328080E-02
 1.027397217E+00 -5.000000000E-01 3.176901155E-02
 1.115833185E+00 -2.765381895E-01 3.309516662E-02
 1.130602838E+00 -3.060217343E-01 3.288271623E-02
 1.131045139E+00 -2.903251596E-01 3.287332017E-02
 1.091135878E+00 -1.818363148E-01 3.410690776E-02
 1.091262311E+00 -1.889810969E-01 3.410706749E-02
 1.072883948E+00 -1.588910107E-01 3.457042904E-02
 1.078441479E+00 -1.641419380E-01 3.445674523E-02
 1.084147064E+00 -1.700167470E-01 3.430915454E-02
 1.090430261E+00 -1.757346334E-01 3.410234556E-02
 1.063823124E+00 -1.541542005E-01 3.473842678E-02
 1.068063237E+00 -1.543507008E-01 3.463112278E-02
 1.060266113E+00 -1.499999695E-01 3.479089792E-02
 1.114181599E+00 -2.304082882E-01 3.322397005E-02
 1.114037424E+00 -2.413492803E-01 3.321053406E-02
 1.098930151E+00 -1.964931587E-01 3.380854803E-02
 1.106975712E+00 -2.043837306E-01 3.350145348E-02
 1.115243697E+00 -2.126141319E-01 3.321199335E-02
 1.114944265E+00 -2.212591583E-01 3.321941101E-02
 1.126693315E+00 -2.634854340E-01 3.293669108E-02
 1.125597492E+00 -2.524283254E-01 3.294597027E-02
 1.130015860E+00 -3.219338899E-01 3.288401704E-02