TITLE     = "fluent21.1.0  build-id: 10179"
VARIABLES = "X"
"Y"
"Velocity Magnitude"
DATASETAUXDATA CFDA.ID1="Pressure"
DATASETAUXDATA CFDA.ID2="Density"
DATASETAUXDATA Common.DensityVar="12"
DATASETAUXDATA Common.PressureVar="3"
DATASETAUXDATA Common.UVar="5"
DATASETAUXDATA Common.VectorVarsAreVelocity="TRUE"
DATASETAUXDATA Common.ViscosityVar="14"
DATASETAUXDATA Common.VVar="7"
ZONE T="sur_out"
 STRANDID=1, SOLUTIONTIME=472.5
 Nodes=14307, Elements=14184, ZONETYPE=FEQuadrilateral
 DATAPACKING=POINT
 FACENEIGHBORCONNECTIONS=1051
 FACENEIGHBORMODE=GLOBALONETOMANY
 DT=(DOUBLE DOUBLE DOUBLE )
 9.063741353E-01 -1.533338230E-01 3.467483442E-02
 9.085549316E-01 -1.499999695E-01 3.467979088E-02
 9.045625610E-01 -1.499999695E-01 3.456535794E-02
 9.113484739E-01 -1.542039737E-01 3.486584131E-02
 9.125473633E-01 -1.499999695E-01 3.481793237E-02
 9.158872510E-01 -1.545530096E-01 3.501014424E-02
 9.165397949E-01 -1.499999695E-01 3.495158914E-02
 9.202813887E-01 -1.546971369E-01 3.513397515E-02
 9.205321655E-01 -1.499999695E-01 3.506783407E-02
 9.153732023E-01 -1.592847587E-01 3.512318898E-02
 9.105860375E-01 -1.589034663E-01 3.496312181E-02
 9.200174968E-01 -1.594914330E-01 3.525825427E-02
 9.246753578E-01 -1.547218036E-01 3.524256778E-02
 9.245245361E-01 -1.499999695E-01 3.517123912E-02
 9.196650126E-01 -1.643875110E-01 3.536431689E-02
 9.149934157E-01 -1.641505016E-01 3.522564428E-02
 9.247319267E-01 -1.595607292E-01 3.537582040E-02
 9.291435651E-01 -1.546135919E-01 3.533796138E-02
 9.285169678E-01 -1.499999695E-01 3.526254782E-02
 9.189842873E-01 -1.693168603E-01 3.544770956E-02
 9.151122900E-01 -1.691581358E-01 3.531913545E-02
 9.246431338E-01 -1.645467493E-01 3.548821750E-02
 9.295641308E-01 -1.594556999E-01 3.547849409E-02
 9.337923174E-01 -1.542675551E-01 3.541570270E-02
 9.325093994E-01 -1.499999695E-01 3.533849319E-02
 9.167942972E-01 -1.739748461E-01 3.545865885E-02
 9.243358033E-01 -1.697051442E-01 3.557971689E-02
 9.298087871E-01 -1.644979192E-01 3.559830598E-02
 9.345369575E-01 -1.591321581E-01 3.556179229E-02
 9.365017700E-01 -1.499999695E-01 3.538406401E-02
 9.389513414E-01 -1.533187119E-01 3.547025401E-02
 9.236803391E-01 -1.752162271E-01 3.565616383E-02
 9.300185846E-01 -1.697216903E-01 3.570188611E-02
 9.349695572E-01 -1.642417479E-01 3.568682613E-02
 9.397825131E-01 -1.585509680E-01 3.562720059E-02
 9.404941406E-01 -1.499999695E-01 3.543234691E-02
 9.303635284E-01 -1.753017109E-01 3.579393184E-02
 9.232161545E-01 -1.818583126E-01 3.573105736E-02
 9.163281153E-01 -1.813740034E-01 3.555143262E-02
 9.355252294E-01 -1.693559242E-01 3.578759114E-02
 9.399633246E-01 -1.639624724E-01 3.575342589E-02
 9.441600496E-01 -1.537686594E-01 3.554712135E-02
 9.456402443E-01 -1.577784576E-01 3.567380392E-02
 9.444865723E-01 -1.499999695E-01 3.549350537E-02
 9.301936990E-01 -1.820288982E-01 3.587442023E-02
 9.375023765E-01 -1.742006914E-01 3.589511932E-02
 9.226345849E-01 -1.887680603E-01 3.579842892E-02
 9.156516954E-01 -1.882958119E-01 3.562290479E-02
 9.395692581E-01 -1.692421958E-01 3.585121649E-02
 9.454886739E-01 -1.637986387E-01 3.580758895E-02
 9.475435346E-01 -1.539670303E-01 3.558795983E-02
 9.484789429E-01 -1.499999695E-01 3.553639437E-02
 9.298106929E-01 -1.890515631E-01 3.593378113E-02
 9.373303169E-01 -1.818673785E-01 3.597856878E-02
 9.146945579E-01 -1.951420841E-01 3.567306736E-02
 9.218328787E-01 -1.958039722E-01 3.583634919E-02
 9.452493199E-01 -1.694314229E-01 3.590904788E-02
 9.511950355E-01 -1.587907318E-01 3.574092530E-02
 9.510647509E-01 -1.640042044E-01 3.584857128E-02
 9.518771220E-01 -1.543079604E-01 3.562723413E-02
 9.524713745E-01 -1.499999695E-01 3.556782068E-02
 9.292868377E-01 -1.962430231E-01 3.595595868E-02
 9.370960359E-01 -1.891317932E-01 3.602995960E-02
 9.447235495E-01 -1.752362476E-01 3.598631547E-02
 9.445091721E-01 -1.820998357E-01 3.604787626E-02
 9.207163849E-01 -2.030311773E-01 3.583563864E-02
 9.148725468E-01 -2.026967259E-01 3.570588077E-02
 9.511988423E-01 -1.694421555E-01 3.594530314E-02
 9.561771036E-01 -1.590482617E-01 3.576217152E-02
 9.563496295E-01 -1.639608538E-01 3.586489504E-02
 9.562857932E-01 -1.544540392E-01 3.564768112E-02
 9.564637451E-01 -1.499999695E-01 3.558624873E-02
 9.368725146E-01 -1.964014959E-01 3.603828061E-02
 9.286355164E-01 -2.037008615E-01 3.592957641E-02
 9.443383146E-01 -1.892000339E-01 3.608450728E-02
 9.516133455E-01 -1.752047448E-01 3.601979306E-02
 9.516099804E-01 -1.820850048E-01 3.607261124E-02
 9.175400052E-01 -2.099185105E-01 3.572839610E-02
 9.568465485E-01 -1.691022408E-01 3.595056279E-02
 9.608675286E-01 -1.589544656E-01 3.575877302E-02
 9.612956248E-01 -1.636571894E-01 3.585477203E-02
 9.606200050E-01 -1.544334409E-01 3.564908402E-02
 9.604561768E-01 -1.499999695E-01 3.558975185E-02
 9.442580699E-01 -1.963791091E-01 3.607641845E-02
 9.368548601E-01 -2.038575609E-01 3.599319625E-02
 9.276997878E-01 -2.116763707E-01 3.583228139E-02
 9.514582129E-01 -1.892047088E-01 3.609363292E-02
 9.588880322E-01 -1.740253153E-01 3.600390659E-02
 9.588240880E-01 -1.818227195E-01 3.605416597E-02
 9.609441486E-01 -1.689537052E-01 3.593676600E-02
 9.653773338E-01 -1.586410441E-01 3.573494331E-02
 9.670170424E-01 -1.627240439E-01 3.580718539E-02
 9.648728507E-01 -1.542952404E-01 3.563476926E-02
 9.644485474E-01 -1.499999695E-01 3.557848951E-02
 9.446877757E-01 -2.035377877E-01 3.602042808E-02
 9.511387018E-01 -1.963991800E-01 3.606900010E-02
 9.372382573E-01 -2.118070106E-01 3.587295853E-02
 9.273936275E-01 -2.212738868E-01 3.564138604E-02
 9.173436780E-01 -2.209147683E-01 3.556206092E-02
 9.587182113E-01 -1.891619236E-01 3.606117139E-02
 9.662120305E-01 -1.750431663E-01 3.596516076E-02
 9.660752234E-01 -1.820083639E-01 3.599728365E-02
 9.667444453E-01 -1.690038490E-01 3.590280497E-02
 9.687604493E-01 -1.585520757E-01 3.570582866E-02
 9.690536032E-01 -1.540762192E-01 3.560574042E-02
 9.684409790E-01 -1.499999695E-01 3.555344738E-02
 9.473418218E-01 -2.103881614E-01 3.588088823E-02
 9.503205897E-01 -2.035624704E-01 3.600052338E-02
 9.585223694E-01 -1.964824224E-01 3.601939664E-02
 9.370974519E-01 -2.213380127E-01 3.566109817E-02
 9.274657950E-01 -2.311744584E-01 3.537511648E-02
 9.174098815E-01 -2.312835999E-01 3.530828219E-02
 9.660488459E-01 -1.891667801E-01 3.598902239E-02
 9.731355162E-01 -1.751248668E-01 3.588141013E-02
 9.732086682E-01 -1.819903500E-01 3.589845640E-02
 9.728042098E-01 -1.692841454E-01 3.583717592E-02
 9.729120411E-01 -1.637297756E-01 3.576501503E-02
 9.736054537E-01 -1.587291759E-01 3.566762120E-02
 9.741509171E-01 -1.534289073E-01 3.554240293E-02
 9.724333496E-01 -1.499999695E-01 3.550906061E-02
 9.470720462E-01 -2.211245157E-01 3.562551707E-02
 9.581385170E-01 -2.039606401E-01 3.592542538E-02
 9.660989304E-01 -1.964433305E-01 3.593007421E-02
 9.367641620E-01 -2.311902646E-01 3.538328263E-02
 9.283813001E-01 -2.409853805E-01 3.509182670E-02
 9.179457012E-01 -2.416575019E-01 3.501058566E-02
 9.732910748E-01 -1.890776735E-01 3.587825320E-02
 9.803246555E-01 -1.741424713E-01 3.574932834E-02
 9.803328513E-01 -1.817290196E-01 3.576301550E-02
 9.784331753E-01 -1.692470078E-01 3.575510367E-02
 9.782331320E-01 -1.641461778E-01 3.569431529E-02
 9.786128642E-01 -1.591705864E-01 3.560511699E-02
 9.792477509E-01 -1.543140108E-01 3.549593671E-02
 9.764257813E-01 -1.499999695E-01 3.547498474E-02
 9.573904399E-01 -2.119090223E-01 3.576642621E-02
 9.467274024E-01 -2.313271992E-01 3.533660907E-02
 9.571384466E-01 -2.214621281E-01 3.553131096E-02
 9.663389475E-01 -2.039076741E-01 3.581397262E-02
 9.734896398E-01 -1.962497895E-01 3.580909573E-02
 9.358775141E-01 -2.409695196E-01 3.509975519E-02
 9.322361904E-01 -2.501400422E-01 3.481018971E-02
 9.191904432E-01 -2.524483661E-01 3.470543619E-02
 9.804112004E-01 -1.889173528E-01 3.573172858E-02
 9.873459249E-01 -1.752232714E-01 3.559307285E-02
 9.873888338E-01 -1.818531253E-01 3.559437747E-02
 9.823758098E-01 -1.693881911E-01 3.567017963E-02
 9.829874433E-01 -1.644041921E-01 3.560818438E-02
 9.833790799E-01 -1.594618640E-01 3.552504059E-02
 9.804181519E-01 -1.499999695E-01 3.543871357E-02
 9.838183274E-01 -1.546364899E-01 3.542291276E-02
 9.669599122E-01 -2.118425983E-01 3.563296923E-02
 9.461642621E-01 -2.415763608E-01 3.503546331E-02
 9.570313596E-01 -2.314700704E-01 3.524542144E-02
 9.671102830E-01 -2.213833227E-01 3.539280763E-02
 9.741710821E-01 -2.034136964E-01 3.569595893E-02
 9.804011012E-01 -1.960898447E-01 3.565654623E-02
 9.068370381E-01 -2.419266309E-01 3.490075133E-02
 9.067628360E-01 -2.530357910E-01 3.459705219E-02
 9.198820597E-01 -2.649852497E-01 3.440636070E-02
 9.327691378E-01 -2.641116002E-01 3.445927164E-02
 9.876159369E-01 -1.887726030E-01 3.555078846E-02
 9.939136069E-01 -1.751529411E-01 3.541331774E-02
 9.942586497E-01 -1.816650765E-01 3.539614308E-02
 9.877585564E-01 -1.697317691E-01 3.555706907E-02
 9.879718604E-01 -1.645903207E-01 3.550063129E-02
 9.881076958E-01 -1.596093971E-01 3.542674639E-02
 9.844105835E-01 -1.499999695E-01 3.536873412E-02
 9.882419429E-01 -1.547528553E-01 3.533404402E-02
 9.770372359E-01 -2.102161902E-01 3.547166467E-02
 9.450411483E-01 -2.522147691E-01 3.473579721E-02
 9.570537168E-01 -2.418094098E-01 3.494810155E-02
 9.673297280E-01 -2.313318819E-01 3.511723346E-02
 9.770854882E-01 -2.209457359E-01 3.521899071E-02
 9.798368819E-01 -2.032983154E-01 3.555358924E-02
 9.878709144E-01 -1.959099152E-01 3.546529131E-02
 9.067203562E-01 -2.653684258E-01 3.430601565E-02
 9.447286606E-01 -2.644611246E-01 3.444385229E-02
 9.343255005E-01 -2.768840028E-01 3.419599403E-02
 9.208962641E-01 -2.780353609E-01 3.413260895E-02
 9.947876259E-01 -1.883931451E-01 3.534065582E-02
 1.000690555E+00 -1.739601030E-01 3.519300940E-02
 1.000926159E+00 -1.812086260E-01 3.518364496E-02
 9.933389181E-01 -1.697106541E-01 3.540542944E-02
 9.930365016E-01 -1.645875971E-01 3.536928789E-02
 9.928402608E-01 -1.596098277E-01 3.530868624E-02
 9.884029541E-01 -1.499999695E-01 3.528404135E-02
 9.926387885E-01 -1.547523025E-01 3.522896764E-02
 9.571221407E-01 -2.527076542E-01 3.465561428E-02
 9.679851611E-01 -2.415025012E-01 3.483242225E-02
 9.773058574E-01 -2.310127290E-01 3.496235823E-02
 9.871328151E-01 -2.115806049E-01 3.520017016E-02
 9.869016203E-01 -2.211811315E-01 3.500097571E-02
 9.877571420E-01 -2.034852459E-01 3.534976940E-02
 9.957147516E-01 -1.952966430E-01 3.523907257E-02
 9.067031130E-01 -2.785026077E-01 3.404275681E-02
 9.572339406E-01 -2.647169730E-01 3.437940022E-02
 9.439883844E-01 -2.768074932E-01 3.419413577E-02
 9.397110436E-01 -2.885719396E-01 3.396706175E-02
 9.227243225E-01 -2.917815427E-01 3.389091177E-02
 1.001551095E+00 -1.878025098E-01 3.513714338E-02
 9.986329747E-01 -1.693362215E-01 3.525186867E-02
 1.007491478E+00 -1.748834593E-01 3.495023828E-02
 1.007192820E+00 -1.813851911E-01 3.495562265E-02
 9.979870857E-01 -1.644108945E-01 3.522383667E-02
 9.975700752E-01 -1.594697491E-01 3.517285266E-02
 9.923953857E-01 -1.499999695E-01 3.518548157E-02
 9.970696896E-01 -1.546364409E-01 3.510675992E-02
 9.692933714E-01 -2.520998592E-01 3.455317129E-02
 9.783001551E-01 -2.407695002E-01 3.471798943E-02
 9.866085367E-01 -2.310306763E-01 3.477530184E-02
 9.968483057E-01 -2.114502816E-01 3.493706647E-02
 9.968185359E-01 -2.211843737E-01 3.474754732E-02
 9.962019609E-01 -2.031574062E-01 3.510379789E-02
 1.004003505E+00 -1.937188692E-01 3.497942190E-02
 9.067015748E-01 -2.926002558E-01 3.380624162E-02
 8.925123049E-01 -2.780349790E-01 3.391920117E-02
 8.935580071E-01 -2.649807093E-01 3.417419105E-02
 9.699907934E-01 -2.643649974E-01 3.428963372E-02
 9.572165011E-01 -2.773098890E-01 3.413018711E-02
 9.407412899E-01 -3.067220843E-01 3.369958479E-02
 9.236165758E-01 -3.079155978E-01 3.366787244E-02
 1.006470294E+00 -1.878372613E-01 3.493946391E-02
 1.002488555E+00 -1.692192670E-01 3.510445586E-02
 1.014157245E+00 -1.748517639E-01 3.469427117E-02
 1.013860520E+00 -1.815634688E-01 3.469502467E-02
 1.007913779E+00 -1.693151555E-01 3.491974580E-02
 1.002689366E+00 -1.642182297E-01 3.506476134E-02
 1.002364226E+00 -1.592009916E-01 3.501521516E-02
 9.963877563E-01 -1.499999695E-01 3.507119831E-02
 1.001666064E+00 -1.543141615E-01 3.496369145E-02
 9.821512810E-01 -2.498188581E-01 3.443267900E-02
 9.857583208E-01 -2.407439126E-01 3.457330194E-02
 9.965617633E-01 -2.312002400E-01 3.455029000E-02
 1.007272098E+00 -2.098788531E-01 3.464156850E-02
 1.007023092E+00 -2.209161968E-01 3.447132805E-02
 1.004499131E+00 -2.023923531E-01 3.486710203E-02
 9.067097124E-01 -3.083706348E-01 3.359436108E-02
 8.906812866E-01 -2.917799313E-01 3.369082437E-02
 8.790728965E-01 -2.768838417E-01 3.379259098E-02
 8.806486945E-01 -2.641027523E-01 3.400933699E-02
 9.826148072E-01 -2.635783643E-01 3.416877660E-02
 9.709297194E-01 -2.770095879E-01 3.404830675E-02
 9.567757205E-01 -2.906645749E-01 3.389925637E-02
 9.243357852E-01 -3.248018454E-01 3.347157592E-02
 9.419928547E-01 -3.239108556E-01 3.349746431E-02
 9.576728538E-01 -3.064869275E-01 3.368090691E-02
 1.013112649E+00 -1.883809612E-01 3.469444148E-02
 1.013771822E+00 -1.691265416E-01 3.468798183E-02
 1.021468092E+00 -1.737549512E-01 3.438515066E-02
 1.020947098E+00 -1.815627078E-01 3.440715469E-02
 1.007889739E+00 -1.640053539E-01 3.487940017E-02
 1.007503466E+00 -1.587769358E-01 3.483375379E-02
 1.000380188E+00 -1.499999695E-01 3.494023775E-02
 1.006827689E+00 -1.534067646E-01 3.477281743E-02
 9.960096374E-01 -2.413572621E-01 3.436424066E-02
 1.006899339E+00 -2.312336484E-01 3.429881583E-02
 1.017452126E+00 -2.118270622E-01 3.428238181E-02
 1.017115003E+00 -2.213667716E-01 3.417449483E-02
 1.010537838E+00 -2.028083718E-01 3.463149057E-02
 1.011786483E+00 -1.952493254E-01 3.467696204E-02
 9.067249671E-01 -3.251146642E-01 3.341179686E-02
 8.898032533E-01 -3.079100332E-01 3.348966410E-02
 8.736865310E-01 -2.885695734E-01 3.354519895E-02
 9.944390389E-01 -2.639962913E-01 3.400624072E-02
 9.948606783E-01 -2.519014778E-01 3.418821349E-02
 9.839669064E-01 -2.760570244E-01 3.396043382E-02
 9.725871000E-01 -2.902282876E-01 3.382687247E-02
 9.594856224E-01 -3.227741688E-01 3.348799236E-02
 9.434661810E-01 -3.413816075E-01 3.333249159E-02
 9.250363948E-01 -3.423088245E-01 3.330975311E-02
 9.737675106E-01 -3.057289841E-01 3.362656115E-02
 1.020312615E+00 -1.888121733E-01 3.440586321E-02
 1.019569441E+00 -1.686170447E-01 3.445611846E-02
 1.013419875E+00 -1.636679744E-01 3.466269389E-02
 1.028728477E+00 -1.752319206E-01 3.406989144E-02
 1.028139050E+00 -1.820969622E-01 3.410341581E-02
 1.012899502E+00 -1.584624384E-01 3.462909011E-02
 1.004372559E+00 -1.499999695E-01 3.480548145E-02
 1.012206376E+00 -1.539245205E-01 3.458325116E-02
 1.006892388E+00 -2.415815950E-01 3.412968074E-02
 1.017205542E+00 -2.312355109E-01 3.403428096E-02
 1.026820200E+00 -2.123498845E-01 3.396598124E-02
 1.026816694E+00 -2.214929710E-01 3.387640110E-02
 1.018613808E+00 -2.037115989E-01 3.434512451E-02
 1.019495427E+00 -1.960691637E-01 3.438404405E-02
 9.067443124E-01 -3.425829471E-01 3.325880440E-02
 8.891142460E-01 -3.247925433E-01 3.332107363E-02
 8.726743515E-01 -3.067092743E-01 3.334925254E-02
 1.006909666E+00 -2.524179407E-01 3.396738710E-02
 1.006889704E+00 -2.643276282E-01 3.381172515E-02
 9.934625401E-01 -2.760862675E-01 3.384087468E-02
 9.888897497E-01 -2.874654172E-01 3.373294611E-02
 9.624079187E-01 -3.395033110E-01 3.332620541E-02
 9.759392371E-01 -3.211722543E-01 3.346022365E-02
 9.444411152E-01 -3.597867272E-01 3.319701154E-02
 9.256142291E-01 -3.604728859E-01 3.317816028E-02
 9.889059610E-01 -3.049446257E-01 3.353748750E-02
 1.027681045E+00 -1.891904668E-01 3.410336595E-02
 1.023938197E+00 -1.685113190E-01 3.424385493E-02
 1.019085204E+00 -1.630263163E-01 3.443115079E-02
 1.035479929E+00 -1.757470189E-01 3.376956620E-02
 1.035189890E+00 -1.823696089E-01 3.379412655E-02
 1.029818721E+00 -1.693054744E-01 3.400171291E-02
 1.018436000E+00 -1.574394115E-01 3.438807336E-02
 1.008364990E+00 -1.499999695E-01 3.468814873E-02
 1.016718391E+00 -1.538039619E-01 3.441162730E-02
 1.012357361E+00 -1.499999695E-01 3.455328981E-02
 1.017811475E+00 -2.413044832E-01 3.388586176E-02
 1.027078813E+00 -2.310351562E-01 3.377343104E-02
 1.026984468E+00 -2.041441943E-01 3.403422886E-02
 1.036061047E+00 -2.119493435E-01 3.365685233E-02
 1.036308844E+00 -2.212337423E-01 3.358380060E-02
 1.027275139E+00 -1.964907914E-01 3.407957852E-02
 9.067655482E-01 -3.606977544E-01 3.313405946E-02
 8.884516377E-01 -3.422963867E-01 3.318157591E-02
 8.714539094E-01 -3.238906114E-01 3.320050442E-02
 1.019079774E+00 -2.518174668E-01 3.373830827E-02
 1.019695309E+00 -2.640126327E-01 3.360243461E-02
 1.006568766E+00 -2.767817507E-01 3.366789810E-02
 9.826511967E-01 -3.352695152E-01 3.329834159E-02
 9.640355210E-01 -3.585531410E-01 3.319024645E-02
 9.879115907E-01 -3.208320950E-01 3.339733995E-02
 9.446452900E-01 -3.787246193E-01 3.308840978E-02
 9.262119695E-01 -3.791015272E-01 3.307325721E-02
 1.005069293E+00 -3.057074201E-01 3.340598116E-02
 1.005526241E+00 -2.900108809E-01 3.353573287E-02
 1.034990972E+00 -1.893434817E-01 3.379791789E-02
 1.024888044E+00 -1.623260025E-01 3.416583213E-02
 1.035867906E+00 -1.697907632E-01 3.372324295E-02
 1.042143948E+00 -1.755737398E-01 3.346772923E-02
 1.042153350E+00 -1.822870006E-01 3.348543124E-02
 1.030737879E+00 -1.636732847E-01 3.391111461E-02
 1.023587639E+00 -1.580366065E-01 3.418129016E-02
 1.019862928E+00 -1.538203832E-01 3.426448961E-02
 1.016349792E+00 -1.499999695E-01 3.438993240E-02
 1.028093704E+00 -2.405739224E-01 3.366589641E-02
 1.036277261E+00 -2.308367923E-01 3.351697223E-02
 1.035242738E+00 -2.040331018E-01 3.372855240E-02
 1.045877857E+00 -2.101843784E-01 3.332299999E-02
 1.046103683E+00 -2.206594954E-01 3.328618113E-02
 1.034947869E+00 -1.965592114E-01 3.377725496E-02
 9.067857807E-01 -3.793345869E-01 3.303426516E-02
 8.879157122E-01 -3.604570803E-01 3.306826223E-02
 8.700191805E-01 -3.413556752E-01 3.307928302E-02
 1.031952759E+00 -2.495068194E-01 3.348690611E-02
 1.032438745E+00 -2.631898499E-01 3.338580003E-02
 1.020415262E+00 -2.766127875E-01 3.347323206E-02
 9.843315031E-01 -3.566799881E-01 3.315287351E-02
 9.649483986E-01 -3.781852835E-01 3.307988549E-02
 1.004192579E+00 -3.218260145E-01 3.328720758E-02
 9.429487128E-01 -3.977789729E-01 3.300476486E-02
 9.277622974E-01 -3.978029262E-01 3.299270882E-02
 1.021597073E+00 -2.899476318E-01 3.335219446E-02
 1.021659273E+00 -3.058968806E-01 3.324769104E-02
 1.042145902E+00 -1.892670184E-01 3.349735396E-02
 1.036390991E+00 -1.642355829E-01 3.365355666E-02
 1.041791684E+00 -1.698544498E-01 3.344509887E-02
 1.049160449E+00 -1.744134297E-01 3.313423050E-02
 1.049140680E+00 -1.819405581E-01 3.317816616E-02
 1.027073125E+00 -1.583287164E-01 3.400940285E-02
 1.031848296E+00 -1.587806037E-01 3.380786478E-02
 1.023938519E+00 -1.540039568E-01 3.410715641E-02
 1.020342163E+00 -1.499999695E-01 3.423084786E-02
 1.035531769E+00 -2.404492309E-01 3.346181808E-02
 1.046259791E+00 -2.306221716E-01 3.324691468E-02
 1.042988800E+00 -2.034855522E-01 3.345920426E-02
 1.055973690E+00 -2.206014222E-01 3.298376667E-02
 1.055680260E+00 -2.114715847E-01 3.298617550E-02
 1.042291016E+00 -1.963813606E-01 3.348920722E-02
 9.068004778E-01 -3.984457815E-01 3.295204374E-02
 8.873592113E-01 -3.790769056E-01 3.297901104E-02
 8.690841358E-01 -3.597593576E-01 3.298161671E-02
 1.044344285E+00 -2.634791002E-01 3.316419484E-02
 1.044669175E+00 -2.514827719E-01 3.320072436E-02
 1.033798499E+00 -2.756601935E-01 3.329250488E-02
 1.002665734E+00 -3.381599278E-01 3.318633174E-02
 1.003879218E+00 -3.561544556E-01 3.309577557E-02
 9.867281156E-01 -3.766466257E-01 3.304788156E-02
 9.643301983E-01 -3.987488889E-01 3.298940841E-02
 1.021131553E+00 -3.224610278E-01 3.315689231E-02
 9.350282856E-01 -4.157873574E-01 3.289720980E-02
 1.038785823E+00 -2.872267166E-01 3.314562974E-02
 1.038829249E+00 -3.053801849E-01 3.307453272E-02
 1.049153346E+00 -1.890904333E-01 3.320209004E-02
 1.037091881E+00 -1.589661002E-01 3.356377288E-02
 1.041873980E+00 -1.644796116E-01 3.339619868E-02
 1.047287922E+00 -1.695766075E-01 3.319540939E-02
 1.056042522E+00 -1.754239693E-01 3.282281110E-02
 1.056108855E+00 -1.819876856E-01 3.287471238E-02
 1.027958339E+00 -1.541201145E-01 3.392484527E-02
 1.032490655E+00 -1.541073531E-01 3.372039817E-02
 1.024334595E+00 -1.499999695E-01 3.406456369E-02
 1.045828857E+00 -2.408699519E-01 3.322017618E-02
 1.056886297E+00 -2.301017832E-01 3.295926038E-02
 1.048555493E+00 -2.033559164E-01 3.322406205E-02
 1.056276938E+00 -2.035330467E-01 3.295918034E-02
 1.065241950E+00 -2.201430435E-01 3.271408525E-02
 1.064593588E+00 -2.115532101E-01 3.269371438E-02
 1.049087521E+00 -1.962346501E-01 3.321407105E-02
 9.068077271E-01 -4.187775542E-01 3.285026660E-02
 8.858366386E-01 -3.977729650E-01 3.291002618E-02
 8.689134970E-01 -3.786995827E-01 3.290718740E-02
 1.056744674E+00 -2.636151208E-01 3.293496986E-02
 1.056592794E+00 -2.520383483E-01 3.294973805E-02
 1.043556267E+00 -2.755225941E-01 3.312081067E-02
 1.019946789E+00 -3.393549145E-01 3.308039628E-02
 1.017854444E+00 -3.566881638E-01 3.302156139E-02
 1.010607883E+00 -3.729733136E-01 3.299146939E-02
 9.869848428E-01 -3.987098325E-01 3.296132735E-02
 9.623207044E-01 -4.201913732E-01 3.287222764E-02
 1.038704166E+00 -3.226216081E-01 3.301275292E-02
 1.056166039E+00 -3.057322725E-01 3.289082346E-02
 1.056148025E+00 -2.896229789E-01 3.290665064E-02
 1.056244605E+00 -1.889629742E-01 3.290715456E-02
 1.037840867E+00 -1.534920315E-01 3.345323089E-02
 1.042299371E+00 -1.593207424E-01 3.331760425E-02
 1.047032075E+00 -1.644912176E-01 3.315010655E-02
 1.051187172E+00 -1.695522735E-01 3.298292651E-02
 1.062354506E+00 -1.755390303E-01 3.253792068E-02
 1.063013012E+00 -1.816560238E-01 3.257371648E-02
 1.056565979E+00 -1.697809450E-01 3.274779927E-02
 1.032319336E+00 -1.499999695E-01 3.368629629E-02
 1.028327026E+00 -1.499999695E-01 3.388328939E-02
 1.056878557E+00 -2.409142160E-01 3.295046650E-02
 1.068463140E+00 -2.282225680E-01 3.263957072E-02
 1.056352823E+00 -1.961344273E-01 3.293233106E-02
 1.064509865E+00 -2.031731251E-01 3.266341457E-02
 1.071920496E+00 -2.201667041E-01 3.249169253E-02
 1.072909576E+00 -2.114014950E-01 3.242378047E-02
 9.068182925E-01 -4.449716623E-01 3.261711281E-02
 9.353019866E-01 -4.443859605E-01 3.263283860E-02
 8.785745141E-01 -4.157589450E-01 3.280747535E-02
 8.706354072E-01 -3.977550713E-01 3.285347480E-02
 1.057296869E+00 -2.756371220E-01 3.291532554E-02
 1.068762050E+00 -2.631930255E-01 3.272745245E-02
 1.068113809E+00 -2.520448856E-01 3.271435863E-02
 1.038129227E+00 -3.400674631E-01 3.296195259E-02
 1.036906240E+00 -3.581489277E-01 3.292274644E-02
 1.010056103E+00 -3.981865934E-01 3.291130850E-02
 9.867248712E-01 -4.211767681E-01 3.284639554E-02
 9.630483123E-01 -4.448957992E-01 3.262917150E-02
 1.056685842E+00 -3.224522660E-01 3.285992149E-02
 1.072977162E+00 -3.053723308E-01 3.270969393E-02
 1.072331383E+00 -2.897856007E-01 3.270075652E-02
 1.063356575E+00 -1.886713248E-01 3.261093985E-02
 1.043017987E+00 -1.543594811E-01 3.321158809E-02
 1.036311768E+00 -1.499999695E-01 3.348952742E-02
 1.047235427E+00 -1.594574017E-01 3.307763279E-02
 1.051757336E+00 -1.644485769E-01 3.291469044E-02
 1.068154472E+00 -1.752695380E-01 3.228701531E-02
 1.070240079E+00 -1.804360437E-01 3.224925692E-02
 1.062213277E+00 -1.698100366E-01 3.248284623E-02
 1.056854319E+00 -1.643569901E-01 3.266698258E-02
 1.068243924E+00 -2.405741461E-01 3.268420228E-02
 1.063790127E+00 -1.958260814E-01 3.264160938E-02
 1.073363753E+00 -2.017777103E-01 3.233887725E-02
 1.081062929E+00 -2.208840087E-01 3.225596819E-02
 1.081706943E+00 -2.120873367E-01 3.216155481E-02
 9.362842762E-01 -4.718369234E-01 3.206443270E-02
 9.068322395E-01 -4.721921314E-01 3.205474416E-02
 8.783224290E-01 -4.443622770E-01 3.258155549E-02
 8.492548181E-01 -3.986902284E-01 3.277301316E-02
 8.486096674E-01 -3.781370358E-01 3.281529345E-02
 1.072735630E+00 -2.736733122E-01 3.267071411E-02
 1.077448897E+00 -2.633745018E-01 3.255414143E-02
 1.078862758E+00 -2.523156789E-01 3.249599594E-02
 1.056943285E+00 -3.401021660E-01 3.283422649E-02
 1.034521531E+00 -3.771907295E-01 3.288744104E-02
 1.057020784E+00 -3.585457711E-01 3.281448874E-02
 1.009040160E+00 -4.215816174E-01 3.280433520E-02
 1.033551693E+00 -3.994435251E-01 3.284166449E-02
 9.884289146E-01 -4.441307982E-01 3.263306541E-02
 9.659882411E-01 -4.707156211E-01 3.207493120E-02
 1.074892355E+00 -3.212620958E-01 3.270471301E-02
 1.088510830E+00 -3.046479872E-01 3.255551175E-02
 1.087453778E+00 -2.904109471E-01 3.251873284E-02
 1.070373036E+00 -1.882503855E-01 3.232932565E-02
 1.047653238E+00 -1.546105356E-01 3.298628909E-02
 1.040304199E+00 -1.499999695E-01 3.332806798E-02
 1.044296631E+00 -1.499999695E-01 3.315151298E-02
 1.051986189E+00 -1.594000755E-01 3.284211807E-02
 1.072318328E+00 -1.753084482E-01 3.207848381E-02
 1.067704976E+00 -1.697946297E-01 3.223000826E-02
 1.062245693E+00 -1.641336856E-01 3.240664137E-02
 1.056889980E+00 -1.590769730E-01 3.259810829E-02
 1.080023031E+00 -2.301271631E-01 3.234825718E-02
 1.079505182E+00 -2.410784080E-01 3.242964626E-02
 1.070921499E+00 -1.953245128E-01 3.237990443E-02
 1.082295915E+00 -2.035468869E-01 3.205317461E-02
 1.090514102E+00 -2.125048606E-01 3.190539634E-02
 1.090571953E+00 -2.211275539E-01 3.200009296E-02
 9.068493652E-01 -5.000000000E-01 3.166155547E-02
 9.369863281E-01 -5.000000000E-01 3.166929373E-02
 8.773708194E-01 -4.718239041E-01 3.203929674E-02
 8.505491460E-01 -4.448394396E-01 3.253442387E-02
 8.512703688E-01 -4.201268575E-01 3.271626686E-02
 1.090375854E+00 -2.526822489E-01 3.228258459E-02
 1.089432930E+00 -2.642825773E-01 3.237277699E-02
 1.075882251E+00 -3.392640091E-01 3.270406903E-02
 1.056980474E+00 -3.781590665E-01 3.279408245E-02
 1.077163551E+00 -3.577008366E-01 3.270488120E-02
 1.032671293E+00 -4.224250763E-01 3.274506602E-02
 1.006503840E+00 -4.444077377E-01 3.259712734E-02
 1.056845323E+00 -3.999011951E-01 3.276470701E-02
 9.973718804E-01 -4.660063752E-01 3.215305443E-02
 9.671232910E-01 -5.000000000E-01 3.168872964E-02
 1.094021447E+00 -3.179296618E-01 3.253931679E-02
 1.087838950E+00 -2.763763113E-01 3.245564410E-02
 1.099575997E+00 -3.047890944E-01 3.243649852E-02
 1.101122420E+00 -2.908057603E-01 3.236227399E-02
 1.076961735E+00 -1.885809825E-01 3.206905625E-02
 1.077351505E+00 -1.817013445E-01 3.196546899E-02
 1.052094662E+00 -1.546194404E-01 3.276434930E-02
 1.048288940E+00 -1.499999695E-01 3.293683308E-02
 1.072828757E+00 -1.698274022E-01 3.199039702E-02
 1.078055266E+00 -1.757042555E-01 3.185362330E-02
 1.067648167E+00 -1.642790885E-01 3.215065027E-02
 1.062276148E+00 -1.580890910E-01 3.231412452E-02
 1.056484262E+00 -1.544677862E-01 3.254046350E-02
 1.090874220E+00 -2.412819354E-01 3.218381920E-02
 1.091056486E+00 -2.303079663E-01 3.208707992E-02
 1.076159081E+00 -1.954438740E-01 3.216188478E-02
 1.083379158E+00 -1.960932913E-01 3.192951533E-02
 1.090718748E+00 -2.042267573E-01 3.179390569E-02
 1.098967275E+00 -2.125792856E-01 3.167208758E-02
 1.099560366E+00 -2.208028080E-01 3.177472366E-02
 8.767124023E-01 -5.000000000E-01 3.165640008E-02
 8.476390871E-01 -4.706840117E-01 3.202826103E-02
 1.102293870E+00 -2.527803547E-01 3.207518762E-02
 1.102053525E+00 -2.646382504E-01 3.218110160E-02
 1.094513569E+00 -3.379403972E-01 3.258345082E-02
 1.079402357E+00 -3.769331040E-01 3.270036380E-02
 1.096350741E+00 -3.560319285E-01 3.260877794E-02
 1.056696868E+00 -4.226624725E-01 3.268267918E-02
 1.031174405E+00 -4.459121601E-01 3.251690491E-02
 1.079970897E+00 -3.992816817E-01 3.268871511E-02
 9.972602539E-01 -5.000000000E-01 3.169166918E-02
 1.101731241E+00 -2.771049952E-01 3.227615927E-02
 1.114624554E+00 -3.056877917E-01 3.232404549E-02
 1.115665899E+00 -2.908430829E-01 3.221858841E-02
 1.084155225E+00 -1.820888189E-01 3.170033382E-02
 1.083945277E+00 -1.889346014E-01 3.180995371E-02
 1.052281372E+00 -1.499999695E-01 3.272434625E-02
 1.072949095E+00 -1.642854259E-01 3.189638428E-02
 1.078363207E+00 -1.699232212E-01 3.174680219E-02
 1.084192721E+00 -1.758860831E-01 3.159669726E-02
 1.067711816E+00 -1.589029504E-01 3.205866588E-02
 1.060710127E+00 -1.541776458E-01 3.233161358E-02
 1.056273804E+00 -1.499999695E-01 3.251238833E-02
 1.102670604E+00 -2.286741012E-01 3.180363868E-02
 1.102486858E+00 -2.410218380E-01 3.195285258E-02
 1.091081444E+00 -1.964467637E-01 3.166939002E-02
 1.098911710E+00 -2.044181694E-01 3.154928454E-02
 1.105996854E+00 -2.208338850E-01 3.159903571E-02
 1.106812182E+00 -2.125994726E-01 3.146199555E-02
 8.465754395E-01 -5.000000000E-01 3.166558289E-02
 1.114184171E+00 -2.527327351E-01 3.188588213E-02
 1.114703165E+00 -2.643494146E-01 3.200415014E-02
 1.112614482E+00 -3.210087343E-01 3.241274279E-02
 1.111793350E+00 -3.384534785E-01 3.248301315E-02
 1.103482566E+00 -3.725416309E-01 3.260018121E-02
 1.110249716E+00 -3.559092584E-01 3.253561799E-02
 1.056909751E+00 -4.460836154E-01 3.246094818E-02
 1.080165295E+00 -4.221873902E-01 3.262656216E-02
 1.028545983E+00 -4.706956985E-01 3.199926095E-02
 1.103402438E+00 -3.980775912E-01 3.261732382E-02
 1.027397217E+00 -5.000000000E-01 3.164127823E-02
 1.115833185E+00 -2.765381895E-01 3.210985858E-02
 1.130602838E+00 -3.060217343E-01 3.221507784E-02
 1.131045139E+00 -2.903251596E-01 3.208924975E-02
 1.091135878E+00 -1.818363148E-01 3.142908220E-02
 1.091262311E+00 -1.889810969E-01 3.154068738E-02
 1.072883948E+00 -1.588910107E-01 3.181075354E-02
 1.078441479E+00 -1.641419380E-01 3.164214348E-02
 1.084147064E+00 -1.700167470E-01 3.149417535E-02
 1.090430261E+00 -1.757346334E-01 3.133774121E-02
 1.063823124E+00 -1.541542005E-01 3.215322517E-02
 1.068063237E+00 -1.543507008E-01 3.196043150E-02
 1.060266113E+00 -1.499999695E-01 3.230655378E-02
 1.114181599E+00 -2.304082882E-01 3.158823689E-02
 1.114037424E+00 -2.413492803E-01 3.174586287E-02
 1.098930151E+00 -1.964931587E-01 3.141529633E-02
 1.106975712E+00 -2.043837306E-01 3.131717149E-02
 1.115243697E+00 -2.126141319E-01 3.125840792E-02
 1.114944265E+00 -2.212591583E-01 3.142360872E-02
 1.126693315E+00 -2.634854340E-01 3.185176111E-02
 1.125597492E+00 -2.524283254E-01 3.172217401E-02
 1.130015860E+00 -3.219338899E-01 3.231700933E-02