TITLE     = "fluent21.1.0  build-id: 10179"
VARIABLES = "X"
"Y"
"Velocity Magnitude"
DATASETAUXDATA CFDA.ID1="Pressure"
DATASETAUXDATA CFDA.ID2="Density"
DATASETAUXDATA Common.DensityVar="12"
DATASETAUXDATA Common.PressureVar="3"
DATASETAUXDATA Common.UVar="5"
DATASETAUXDATA Common.VectorVarsAreVelocity="TRUE"
DATASETAUXDATA Common.ViscosityVar="14"
DATASETAUXDATA Common.VVar="7"
ZONE T="sur_out"
 STRANDID=1, SOLUTIONTIME=494.25
 Nodes=14307, Elements=14184, ZONETYPE=FEQuadrilateral
 DATAPACKING=POINT
 FACENEIGHBORCONNECTIONS=1051
 FACENEIGHBORMODE=GLOBALONETOMANY
 DT=(DOUBLE DOUBLE DOUBLE )
 9.063741353E-01 -1.533338230E-01 2.707845248E-02
 9.085549316E-01 -1.499999695E-01 2.703193418E-02
 9.045625610E-01 -1.499999695E-01 2.694182008E-02
 9.113484739E-01 -1.542039737E-01 2.726469958E-02
 9.125473633E-01 -1.499999695E-01 2.717727507E-02
 9.158872510E-01 -1.545530096E-01 2.742898768E-02
 9.165397949E-01 -1.499999695E-01 2.733565168E-02
 9.202813887E-01 -1.546971369E-01 2.760024202E-02
 9.205321655E-01 -1.499999695E-01 2.750311266E-02
 9.153732023E-01 -1.592847587E-01 2.762701908E-02
 9.105860375E-01 -1.589034663E-01 2.745935616E-02
 9.200174968E-01 -1.594914330E-01 2.780102501E-02
 9.246753578E-01 -1.547218036E-01 2.778368758E-02
 9.245245361E-01 -1.499999695E-01 2.768282950E-02
 9.196650126E-01 -1.643875110E-01 2.801485486E-02
 9.149934157E-01 -1.641505016E-01 2.784947305E-02
 9.247319267E-01 -1.595607292E-01 2.798919391E-02
 9.291435651E-01 -1.546135919E-01 2.798140274E-02
 9.285169678E-01 -1.499999695E-01 2.787613505E-02
 9.189842873E-01 -1.693168603E-01 2.823028902E-02
 9.151122900E-01 -1.691581358E-01 2.809034719E-02
 9.246431338E-01 -1.645467493E-01 2.820321587E-02
 9.295641308E-01 -1.594556999E-01 2.819326662E-02
 9.337923174E-01 -1.542675551E-01 2.819351172E-02
 9.325093994E-01 -1.499999695E-01 2.808154013E-02
 9.167942972E-01 -1.739748461E-01 2.841690048E-02
 9.243358033E-01 -1.697051442E-01 2.842797936E-02
 9.298087871E-01 -1.644979192E-01 2.841099043E-02
 9.345369575E-01 -1.591321581E-01 2.841333127E-02
 9.365017700E-01 -1.499999695E-01 2.825787835E-02
 9.389513414E-01 -1.533187119E-01 2.842973476E-02
 9.236803391E-01 -1.752162271E-01 2.868329218E-02
 9.300185846E-01 -1.697216903E-01 2.864612061E-02
 9.349695572E-01 -1.642417479E-01 2.862814728E-02
 9.397825131E-01 -1.585509680E-01 2.865670742E-02
 9.404941406E-01 -1.499999695E-01 2.843339138E-02
 9.303635284E-01 -1.753017109E-01 2.891476935E-02
 9.232161545E-01 -1.818583126E-01 2.899953478E-02
 9.163281153E-01 -1.813740034E-01 2.880235898E-02
 9.355252294E-01 -1.693559242E-01 2.884167612E-02
 9.399633246E-01 -1.639624724E-01 2.886449879E-02
 9.441600496E-01 -1.537686594E-01 2.871131593E-02
 9.456402443E-01 -1.577784576E-01 2.894185334E-02
 9.444865723E-01 -1.499999695E-01 2.865394444E-02
 9.301936990E-01 -1.820288982E-01 2.922648544E-02
 9.375023765E-01 -1.742006914E-01 2.915837411E-02
 9.226345849E-01 -1.887680603E-01 2.936180680E-02
 9.156516954E-01 -1.882958119E-01 2.917593659E-02
 9.395692581E-01 -1.692421958E-01 2.904946001E-02
 9.454886739E-01 -1.637986387E-01 2.913952243E-02
 9.475435346E-01 -1.539670303E-01 2.892852982E-02
 9.484789429E-01 -1.499999695E-01 2.888594892E-02
 9.298106929E-01 -1.890515631E-01 2.957491734E-02
 9.373303169E-01 -1.818673785E-01 2.947991175E-02
 9.146945579E-01 -1.951420841E-01 2.955937706E-02
 9.218328787E-01 -1.958039722E-01 2.974097580E-02
 9.452493199E-01 -1.694314229E-01 2.932532913E-02
 9.511950355E-01 -1.587907318E-01 2.928794173E-02
 9.510647509E-01 -1.640042044E-01 2.944107873E-02
 9.518771220E-01 -1.543079604E-01 2.917471286E-02
 9.524713745E-01 -1.499999695E-01 2.912514933E-02
 9.292868377E-01 -1.962430231E-01 2.994747999E-02
 9.370960359E-01 -1.891317932E-01 2.981337395E-02
 9.447235495E-01 -1.752362476E-01 2.952368071E-02
 9.445091721E-01 -1.820998357E-01 2.977452886E-02
 9.207163849E-01 -2.030311773E-01 3.010603543E-02
 9.148725468E-01 -2.026967259E-01 2.995136908E-02
 9.511988423E-01 -1.694421555E-01 2.963234645E-02
 9.561771036E-01 -1.590482617E-01 2.957535688E-02
 9.563496295E-01 -1.639608538E-01 2.973270756E-02
 9.562857932E-01 -1.544540392E-01 2.943689156E-02
 9.564637451E-01 -1.499999695E-01 2.937220764E-02
 9.368725146E-01 -1.964014959E-01 3.017400724E-02
 9.286355164E-01 -2.037008615E-01 3.032851574E-02
 9.443383146E-01 -1.892000339E-01 3.007834261E-02
 9.516133455E-01 -1.752047448E-01 2.984932035E-02
 9.516099804E-01 -1.820850048E-01 3.009406828E-02
 9.175400052E-01 -2.099185105E-01 3.040321351E-02
 9.568465485E-01 -1.691022408E-01 2.990260893E-02
 9.608675286E-01 -1.589544656E-01 2.984472269E-02
 9.612956248E-01 -1.636571894E-01 3.000954838E-02
 9.606200050E-01 -1.544334409E-01 2.969034846E-02
 9.604561768E-01 -1.499999695E-01 2.961710691E-02
 9.442580699E-01 -1.963791091E-01 3.041191799E-02
 9.368548601E-01 -2.038575609E-01 3.055987966E-02
 9.276997878E-01 -2.116763707E-01 3.071110225E-02
 9.514582129E-01 -1.892047088E-01 3.036849027E-02
 9.588880322E-01 -1.740253153E-01 3.019188049E-02
 9.588240880E-01 -1.818227195E-01 3.043233285E-02
 9.609441486E-01 -1.689537052E-01 3.015790512E-02
 9.653773338E-01 -1.586410441E-01 3.007931188E-02
 9.670170424E-01 -1.627240439E-01 3.031425873E-02
 9.648728507E-01 -1.542952404E-01 2.993423747E-02
 9.644485474E-01 -1.499999695E-01 2.985917829E-02
 9.446877757E-01 -2.035377877E-01 3.075697184E-02
 9.511387018E-01 -1.963991800E-01 3.067107364E-02
 9.372382573E-01 -2.118070106E-01 3.096095636E-02
 9.273936275E-01 -2.212738868E-01 3.108556536E-02
 9.173436780E-01 -2.209147683E-01 3.085636435E-02
 9.587182113E-01 -1.891619236E-01 3.068501644E-02
 9.662120305E-01 -1.750431663E-01 3.061630064E-02
 9.660752234E-01 -1.820083639E-01 3.079784065E-02
 9.667444453E-01 -1.690038490E-01 3.047051224E-02
 9.687604493E-01 -1.585520757E-01 3.030451861E-02
 9.690536032E-01 -1.540762192E-01 3.017800945E-02
 9.684409790E-01 -1.499999695E-01 3.010213663E-02
 9.473418218E-01 -2.103881614E-01 3.120008667E-02
 9.503205897E-01 -2.035624704E-01 3.097544805E-02
 9.585223694E-01 -1.964824224E-01 3.096604787E-02
 9.370974519E-01 -2.213380127E-01 3.133928701E-02
 9.274657950E-01 -2.311744584E-01 3.140400638E-02
 9.174098815E-01 -2.312835999E-01 3.119249000E-02
 9.660488459E-01 -1.891667801E-01 3.102422557E-02
 9.731355162E-01 -1.751248668E-01 3.098982194E-02
 9.732086682E-01 -1.819903500E-01 3.117178807E-02
 9.728042098E-01 -1.692841454E-01 3.081959459E-02
 9.729120411E-01 -1.637297756E-01 3.068418259E-02
 9.736054537E-01 -1.587291759E-01 3.057916117E-02
 9.741509171E-01 -1.534289073E-01 3.046108311E-02
 9.724333496E-01 -1.499999695E-01 3.031472921E-02
 9.470720462E-01 -2.211245157E-01 3.161831531E-02
 9.581385170E-01 -2.039606401E-01 3.127254534E-02
 9.660989304E-01 -1.964433305E-01 3.128539284E-02
 9.367641620E-01 -2.311902646E-01 3.164039823E-02
 9.283813001E-01 -2.409853805E-01 3.164114846E-02
 9.179457012E-01 -2.416575019E-01 3.145944519E-02
 9.732910748E-01 -1.890776735E-01 3.137252878E-02
 9.803246555E-01 -1.741424713E-01 3.136907044E-02
 9.803328513E-01 -1.817290196E-01 3.154255497E-02
 9.784331753E-01 -1.692470078E-01 3.112114369E-02
 9.782331320E-01 -1.641461778E-01 3.099479564E-02
 9.786128642E-01 -1.591705864E-01 3.088092512E-02
 9.792477509E-01 -1.543140108E-01 3.078838874E-02
 9.764257813E-01 -1.499999695E-01 3.051259118E-02
 9.573904399E-01 -2.119090223E-01 3.160139788E-02
 9.467274024E-01 -2.313271992E-01 3.191459616E-02
 9.571384466E-01 -2.214621281E-01 3.193920895E-02
 9.663389475E-01 -2.039076741E-01 3.159176907E-02
 9.734896398E-01 -1.962497895E-01 3.160516118E-02
 9.358775141E-01 -2.409695196E-01 3.183980549E-02
 9.322361904E-01 -2.501400422E-01 3.190508665E-02
 9.191904432E-01 -2.524483661E-01 3.168558322E-02
 9.804112004E-01 -1.889173528E-01 3.172442582E-02
 9.873459249E-01 -1.752232714E-01 3.178163960E-02
 9.873888338E-01 -1.818531253E-01 3.191571192E-02
 9.823758098E-01 -1.693881911E-01 3.138065779E-02
 9.829874433E-01 -1.644041921E-01 3.127909793E-02
 9.833790799E-01 -1.594618640E-01 3.116714076E-02
 9.804181519E-01 -1.499999695E-01 3.075135352E-02
 9.838183274E-01 -1.546364899E-01 3.105726459E-02
 9.669599122E-01 -2.118425983E-01 3.193624955E-02
 9.461642621E-01 -2.415763608E-01 3.210404349E-02
 9.570313596E-01 -2.314700704E-01 3.222207938E-02
 9.671102830E-01 -2.213833227E-01 3.227363182E-02
 9.741710821E-01 -2.034136964E-01 3.186800500E-02
 9.804011012E-01 -1.960898447E-01 3.192735224E-02
 9.068370381E-01 -2.419266309E-01 3.127190180E-02
 9.067628360E-01 -2.530357910E-01 3.150037629E-02
 9.198820597E-01 -2.649852497E-01 3.187896442E-02
 9.327691378E-01 -2.641116002E-01 3.208286087E-02
 9.876159369E-01 -1.887726030E-01 3.208234820E-02
 9.939136069E-01 -1.751529411E-01 3.212775763E-02
 9.942586497E-01 -1.816650765E-01 3.227486382E-02
 9.877585564E-01 -1.697317691E-01 3.167278848E-02
 9.879718604E-01 -1.645903207E-01 3.156073037E-02
 9.881076958E-01 -1.596093971E-01 3.143806251E-02
 9.844105835E-01 -1.499999695E-01 3.100450033E-02
 9.882419429E-01 -1.547528553E-01 3.130924892E-02
 9.770372359E-01 -2.102161902E-01 3.226629502E-02
 9.450411483E-01 -2.522147691E-01 3.222168974E-02
 9.570537168E-01 -2.418094098E-01 3.240709667E-02
 9.673297280E-01 -2.313318819E-01 3.254267025E-02
 9.770854882E-01 -2.209457359E-01 3.261155654E-02
 9.798368819E-01 -2.032983154E-01 3.214101648E-02
 9.878709144E-01 -1.959099152E-01 3.227105792E-02
 9.067203562E-01 -2.653684258E-01 3.170298567E-02
 9.447286606E-01 -2.644611246E-01 3.231773578E-02
 9.343255005E-01 -2.768840028E-01 3.221755451E-02
 9.208962641E-01 -2.780353609E-01 3.204849053E-02
 9.947876259E-01 -1.883931451E-01 3.243588281E-02
 1.000690555E+00 -1.739601030E-01 3.246584880E-02
 1.000926159E+00 -1.812086260E-01 3.260679472E-02
 9.933389181E-01 -1.697106541E-01 3.198145191E-02
 9.930365016E-01 -1.645875971E-01 3.184070615E-02
 9.928402608E-01 -1.596098277E-01 3.170033505E-02
 9.884029541E-01 -1.499999695E-01 3.124411494E-02
 9.926387885E-01 -1.547523025E-01 3.155210150E-02
 9.571221407E-01 -2.527076542E-01 3.251654431E-02
 9.679851611E-01 -2.415025012E-01 3.272146188E-02
 9.773058574E-01 -2.310127290E-01 3.285941643E-02
 9.871328151E-01 -2.115806049E-01 3.271686496E-02
 9.869016203E-01 -2.211811315E-01 3.297105526E-02
 9.877571420E-01 -2.034852459E-01 3.248127615E-02
 9.957147516E-01 -1.952966430E-01 3.262616434E-02
 9.067031130E-01 -2.785026077E-01 3.188268131E-02
 9.572339406E-01 -2.647169730E-01 3.258221260E-02
 9.439883844E-01 -2.768074932E-01 3.239733897E-02
 9.397110436E-01 -2.885719396E-01 3.239526120E-02
 9.227243225E-01 -2.917815427E-01 3.219743661E-02
 1.001551095E+00 -1.878025098E-01 3.274172976E-02
 9.986329747E-01 -1.693362215E-01 3.224010013E-02
 1.007491478E+00 -1.748834593E-01 3.283179774E-02
 1.007192820E+00 -1.813851911E-01 3.292673202E-02
 9.979870857E-01 -1.644108945E-01 3.210202625E-02
 9.975700752E-01 -1.594697491E-01 3.195321136E-02
 9.923953857E-01 -1.499999695E-01 3.147592801E-02
 9.970696896E-01 -1.546364409E-01 3.178893778E-02
 9.692933714E-01 -2.520998592E-01 3.282428427E-02
 9.783001551E-01 -2.407695002E-01 3.300711330E-02
 9.866085367E-01 -2.310306763E-01 3.317471668E-02
 9.968483057E-01 -2.114502816E-01 3.309641171E-02
 9.968185359E-01 -2.211843737E-01 3.333650039E-02
 9.962019609E-01 -2.031574062E-01 3.284691238E-02
 1.004003505E+00 -1.937188692E-01 3.298920413E-02
 9.067015748E-01 -2.926002558E-01 3.204074288E-02
 8.925123049E-01 -2.780349790E-01 3.174505107E-02
 8.935580071E-01 -2.649807093E-01 3.155451267E-02
 9.699907934E-01 -2.643649974E-01 3.286659962E-02
 9.572165011E-01 -2.773098890E-01 3.262534033E-02
 9.407412899E-01 -3.067220843E-01 3.249027927E-02
 9.236165758E-01 -3.079155978E-01 3.231760382E-02
 1.006470294E+00 -1.878372613E-01 3.301299585E-02
 1.002488555E+00 -1.692192670E-01 3.246850634E-02
 1.014157245E+00 -1.748517639E-01 3.314748297E-02
 1.013860520E+00 -1.815634688E-01 3.324871993E-02
 1.007913779E+00 -1.693151555E-01 3.273196895E-02
 1.002689366E+00 -1.642182297E-01 3.235000785E-02
 1.002364226E+00 -1.592009916E-01 3.219904132E-02
 9.963877563E-01 -1.499999695E-01 3.170259905E-02
 1.001666064E+00 -1.543141615E-01 3.201985337E-02
 9.821512810E-01 -2.498188581E-01 3.316827502E-02
 9.857583208E-01 -2.407439126E-01 3.326377517E-02
 9.965617633E-01 -2.312002400E-01 3.350275927E-02
 1.007272098E+00 -2.098788531E-01 3.348084360E-02
 1.007023092E+00 -2.209161968E-01 3.369727340E-02
 1.004499131E+00 -2.023923531E-01 3.316887776E-02
 9.067097124E-01 -3.083706348E-01 3.217627458E-02
 8.906812866E-01 -2.917799313E-01 3.191082785E-02
 8.790728965E-01 -2.768838417E-01 3.164066704E-02
 8.806486945E-01 -2.641027523E-01 3.144721192E-02
 9.826148072E-01 -2.635783643E-01 3.315253989E-02
 9.709297194E-01 -2.770095879E-01 3.288484474E-02
 9.567757205E-01 -2.906645749E-01 3.265642011E-02
 9.243357852E-01 -3.248018454E-01 3.241132705E-02
 9.419928547E-01 -3.239108556E-01 3.255961895E-02
 9.576728538E-01 -3.064869275E-01 3.269009686E-02
 1.013112649E+00 -1.883809612E-01 3.331823854E-02
 1.013771822E+00 -1.691265416E-01 3.301659891E-02
 1.021468092E+00 -1.737549512E-01 3.346809810E-02
 1.020947098E+00 -1.815627078E-01 3.357155824E-02
 1.007889739E+00 -1.640053539E-01 3.260627868E-02
 1.007503466E+00 -1.587769358E-01 3.244881474E-02
 1.000380188E+00 -1.499999695E-01 3.192282340E-02
 1.006827689E+00 -1.534067646E-01 3.225885592E-02
 9.960096374E-01 -2.413572621E-01 3.355409426E-02
 1.006899339E+00 -2.312336484E-01 3.383640531E-02
 1.017452126E+00 -2.118270622E-01 3.391788933E-02
 1.017115003E+00 -2.213667716E-01 3.405204099E-02
 1.010537838E+00 -2.028083718E-01 3.346947216E-02
 1.011786483E+00 -1.952493254E-01 3.337976728E-02
 9.067249671E-01 -3.251146642E-01 3.228905492E-02
 8.898032533E-01 -3.079100332E-01 3.206328618E-02
 8.736865310E-01 -2.885695734E-01 3.178960710E-02
 9.944390389E-01 -2.639962913E-01 3.342454131E-02
 9.948606783E-01 -2.519014778E-01 3.350895930E-02
 9.839669064E-01 -2.760570244E-01 3.312828721E-02
 9.725871000E-01 -2.902282876E-01 3.289935047E-02
 9.594856224E-01 -3.227741688E-01 3.272827311E-02
 9.434661810E-01 -3.413816075E-01 3.260940879E-02
 9.250363948E-01 -3.423088245E-01 3.248248844E-02
 9.737675106E-01 -3.057289841E-01 3.289881516E-02
 1.020312615E+00 -1.888121733E-01 3.364803995E-02
 1.019569441E+00 -1.686170447E-01 3.325983856E-02
 1.013419875E+00 -1.636679744E-01 3.286724129E-02
 1.028728477E+00 -1.752319206E-01 3.380782030E-02
 1.028139050E+00 -1.820969622E-01 3.388513234E-02
 1.012899502E+00 -1.584624384E-01 3.269879784E-02
 1.004372559E+00 -1.499999695E-01 3.210231540E-02
 1.012206376E+00 -1.539245205E-01 3.254024843E-02
 1.006892388E+00 -2.415815950E-01 3.386910343E-02
 1.017205542E+00 -2.312355109E-01 3.415472592E-02
 1.026820200E+00 -2.123498845E-01 3.426265476E-02
 1.026816694E+00 -2.214929710E-01 3.437560134E-02
 1.018613808E+00 -2.037115989E-01 3.380618104E-02
 1.019495427E+00 -1.960691637E-01 3.371957282E-02
 9.067443124E-01 -3.425829471E-01 3.237834016E-02
 8.891142460E-01 -3.247925433E-01 3.219417494E-02
 8.726743515E-01 -3.067092743E-01 3.198631941E-02
 1.006909666E+00 -2.524179407E-01 3.380764347E-02
 1.006889704E+00 -2.643276282E-01 3.369004516E-02
 9.934625401E-01 -2.760862675E-01 3.333573878E-02
 9.888897497E-01 -2.874654172E-01 3.317399881E-02
 9.624079187E-01 -3.395033110E-01 3.275690526E-02
 9.759392371E-01 -3.211722543E-01 3.289427093E-02
 9.444411152E-01 -3.597867272E-01 3.264014786E-02
 9.256142291E-01 -3.604728859E-01 3.253347870E-02
 9.889059610E-01 -3.049446257E-01 3.309984644E-02
 1.027681045E+00 -1.891904668E-01 3.396397323E-02
 1.023938197E+00 -1.685113190E-01 3.347768066E-02
 1.019085204E+00 -1.630263163E-01 3.311235259E-02
 1.035479929E+00 -1.757470189E-01 3.408388929E-02
 1.035189890E+00 -1.823696089E-01 3.417332782E-02
 1.029818721E+00 -1.693054744E-01 3.372874515E-02
 1.018436000E+00 -1.574394115E-01 3.293540457E-02
 1.008364990E+00 -1.499999695E-01 3.226937075E-02
 1.016718391E+00 -1.538039619E-01 3.273109386E-02
 1.012357361E+00 -1.499999695E-01 3.247161075E-02
 1.017811475E+00 -2.413044832E-01 3.416690137E-02
 1.027078813E+00 -2.310351562E-01 3.443860290E-02
 1.026984468E+00 -2.041441943E-01 3.414354313E-02
 1.036061047E+00 -2.119493435E-01 3.456267104E-02
 1.036308844E+00 -2.212337423E-01 3.465743888E-02
 1.027275139E+00 -1.964907914E-01 3.404401906E-02
 9.067655482E-01 -3.606977544E-01 3.244595113E-02
 8.884516377E-01 -3.422963867E-01 3.229841943E-02
 8.714539094E-01 -3.238906114E-01 3.213004393E-02
 1.019079774E+00 -2.518174668E-01 3.409350461E-02
 1.019695309E+00 -2.640126327E-01 3.395189944E-02
 1.006568766E+00 -2.767817507E-01 3.355315609E-02
 9.826511967E-01 -3.352695152E-01 3.293794597E-02
 9.640355210E-01 -3.585531410E-01 3.276657466E-02
 9.879115907E-01 -3.208320950E-01 3.304032421E-02
 9.446452900E-01 -3.787246193E-01 3.265717561E-02
 9.262119695E-01 -3.791015272E-01 3.257035339E-02
 1.005069293E+00 -3.057074201E-01 3.329695359E-02
 1.005526241E+00 -2.900108809E-01 3.341888083E-02
 1.034990972E+00 -1.893434817E-01 3.425407358E-02
 1.024888044E+00 -1.623260025E-01 3.335933870E-02
 1.035867906E+00 -1.697907632E-01 3.398369051E-02
 1.042143948E+00 -1.755737398E-01 3.432364740E-02
 1.042153350E+00 -1.822870006E-01 3.442725545E-02
 1.030737879E+00 -1.636732847E-01 3.364093525E-02
 1.023587639E+00 -1.580366065E-01 3.317232356E-02
 1.019862928E+00 -1.538203832E-01 3.289156779E-02
 1.016349792E+00 -1.499999695E-01 3.266638383E-02
 1.028093704E+00 -2.405739224E-01 3.442331293E-02
 1.036277261E+00 -2.308367923E-01 3.468216659E-02
 1.035242738E+00 -2.040331018E-01 3.444220721E-02
 1.045877857E+00 -2.101843784E-01 3.484466271E-02
 1.046103683E+00 -2.206594954E-01 3.490946132E-02
 1.034947869E+00 -1.965592114E-01 3.433744749E-02
 9.067857807E-01 -3.793345869E-01 3.249734593E-02
 8.879157122E-01 -3.604570803E-01 3.237958623E-02
 8.700191805E-01 -3.413556752E-01 3.224474139E-02
 1.031952759E+00 -2.495068194E-01 3.439691315E-02
 1.032438745E+00 -2.631898499E-01 3.418342189E-02
 1.020415262E+00 -2.766127875E-01 3.378893525E-02
 9.843315031E-01 -3.566799881E-01 3.290467420E-02
 9.649483986E-01 -3.781852835E-01 3.276126185E-02
 1.004192579E+00 -3.218260145E-01 3.319115793E-02
 9.429487128E-01 -3.977789729E-01 3.266179964E-02
 9.277622974E-01 -3.978029262E-01 3.259537168E-02
 1.021597073E+00 -2.899476318E-01 3.363921243E-02
 1.021659273E+00 -3.058968806E-01 3.348838799E-02
 1.042145902E+00 -1.892670184E-01 3.451190603E-02
 1.036390991E+00 -1.642355829E-01 3.387345825E-02
 1.041791684E+00 -1.698544498E-01 3.420375969E-02
 1.049160449E+00 -1.744134297E-01 3.454140277E-02
 1.049140680E+00 -1.819405581E-01 3.465353677E-02
 1.027073125E+00 -1.583287164E-01 3.334828712E-02
 1.031848296E+00 -1.587806037E-01 3.354387921E-02
 1.023938519E+00 -1.540039568E-01 3.306503102E-02
 1.020342163E+00 -1.499999695E-01 3.283942035E-02
 1.035531769E+00 -2.404492309E-01 3.461587569E-02
 1.046259791E+00 -2.306221716E-01 3.490247108E-02
 1.042988800E+00 -2.034855522E-01 3.468072511E-02
 1.055973690E+00 -2.206014222E-01 3.513054837E-02
 1.055680260E+00 -2.114715847E-01 3.511029587E-02
 1.042291016E+00 -1.963813606E-01 3.459168802E-02
 9.068004778E-01 -3.984457815E-01 3.253399954E-02
 8.873592113E-01 -3.790769056E-01 3.244167054E-02
 8.690841358E-01 -3.597593576E-01 3.233629761E-02
 1.044344285E+00 -2.634791002E-01 3.435885651E-02
 1.044669175E+00 -2.514827719E-01 3.459115804E-02
 1.033798499E+00 -2.756601935E-01 3.399807178E-02
 1.002665734E+00 -3.381599278E-01 3.310020666E-02
 1.003879218E+00 -3.561544556E-01 3.303502449E-02
 9.867281156E-01 -3.766466257E-01 3.287949380E-02
 9.643301983E-01 -3.987488889E-01 3.274672028E-02
 1.021131553E+00 -3.224610278E-01 3.334704509E-02
 9.350282856E-01 -4.157873574E-01 3.261619034E-02
 1.038785823E+00 -2.872267166E-01 3.387976989E-02
 1.038829249E+00 -3.053801849E-01 3.365298919E-02
 1.049153346E+00 -1.890904333E-01 3.473984637E-02
 1.037091881E+00 -1.589661002E-01 3.375128269E-02
 1.041873980E+00 -1.644796116E-01 3.407854990E-02
 1.047287922E+00 -1.695766075E-01 3.437421537E-02
 1.056042522E+00 -1.754239693E-01 3.476472734E-02
 1.056108855E+00 -1.819876856E-01 3.485896724E-02
 1.027958339E+00 -1.541201145E-01 3.324396985E-02
 1.032490655E+00 -1.541073531E-01 3.342047871E-02
 1.024334595E+00 -1.499999695E-01 3.301154030E-02
 1.045828857E+00 -2.408699519E-01 3.479044731E-02
 1.056886297E+00 -2.301017832E-01 3.510019202E-02
 1.048555493E+00 -2.033559164E-01 3.487325689E-02
 1.056276938E+00 -2.035330467E-01 3.507171338E-02
 1.065241950E+00 -2.201430435E-01 3.529986536E-02
 1.064593588E+00 -2.115532101E-01 3.529754160E-02
 1.049087521E+00 -1.962346501E-01 3.481227392E-02
 9.068077271E-01 -4.187775542E-01 3.253635962E-02
 8.858366386E-01 -3.977729650E-01 3.248357109E-02
 8.689134970E-01 -3.786995827E-01 3.240750604E-02
 1.056744674E+00 -2.636151208E-01 3.449152882E-02
 1.056592794E+00 -2.520383483E-01 3.473875778E-02
 1.043556267E+00 -2.755225941E-01 3.414045754E-02
 1.019946789E+00 -3.393549145E-01 3.322926796E-02
 1.017854444E+00 -3.566881638E-01 3.313419037E-02
 1.010607883E+00 -3.729733136E-01 3.301913603E-02
 9.869848428E-01 -3.987098325E-01 3.284811833E-02
 9.623207044E-01 -4.201913732E-01 3.270169114E-02
 1.038704166E+00 -3.226216081E-01 3.348137201E-02
 1.056166039E+00 -3.057322725E-01 3.377580447E-02
 1.056148025E+00 -2.896229789E-01 3.400283044E-02
 1.056244605E+00 -1.889629742E-01 3.494468002E-02
 1.037840867E+00 -1.534920315E-01 3.360379881E-02
 1.042299371E+00 -1.593207424E-01 3.394684075E-02
 1.047032075E+00 -1.644912176E-01 3.425297688E-02
 1.051187172E+00 -1.695522735E-01 3.451517367E-02
 1.062354506E+00 -1.755390303E-01 3.492895555E-02
 1.063013012E+00 -1.816560238E-01 3.503360249E-02
 1.056565979E+00 -1.697809450E-01 3.466663900E-02
 1.032319336E+00 -1.499999695E-01 3.334934154E-02
 1.028327026E+00 -1.499999695E-01 3.318372272E-02
 1.056878557E+00 -2.409142160E-01 3.496308842E-02
 1.068463140E+00 -2.282225680E-01 3.528036934E-02
 1.056352823E+00 -1.961344273E-01 3.501453469E-02
 1.064509865E+00 -2.031731251E-01 3.526134660E-02
 1.071920496E+00 -2.201667041E-01 3.540648082E-02
 1.072909576E+00 -2.114014950E-01 3.543448505E-02
 9.068182925E-01 -4.449716623E-01 3.240485334E-02
 9.353019866E-01 -4.443859605E-01 3.246536924E-02
 8.785745141E-01 -4.157589450E-01 3.248644821E-02
 8.706354072E-01 -3.977550713E-01 3.245793545E-02
 1.057296869E+00 -2.756371220E-01 3.424816144E-02
 1.068762050E+00 -2.631930255E-01 3.460173107E-02
 1.068113809E+00 -2.520448856E-01 3.484366108E-02
 1.038129227E+00 -3.400674631E-01 3.333926723E-02
 1.036906240E+00 -3.581489277E-01 3.321854684E-02
 1.010056103E+00 -3.981865934E-01 3.294615768E-02
 9.867248712E-01 -4.211767681E-01 3.278314658E-02
 9.630483123E-01 -4.448957992E-01 3.254025776E-02
 1.056685842E+00 -3.224522660E-01 3.358964789E-02
 1.072977162E+00 -3.053723308E-01 3.385632723E-02
 1.072331383E+00 -2.897856007E-01 3.408641997E-02
 1.063356575E+00 -1.886713248E-01 3.512249810E-02
 1.043017987E+00 -1.543594811E-01 3.381844051E-02
 1.036311768E+00 -1.499999695E-01 3.348337372E-02
 1.047235427E+00 -1.594574017E-01 3.411836914E-02
 1.051757336E+00 -1.644485769E-01 3.440454051E-02
 1.068154472E+00 -1.752695380E-01 3.505073352E-02
 1.070240079E+00 -1.804360437E-01 3.517992460E-02
 1.062213277E+00 -1.698100366E-01 3.481576662E-02
 1.056854319E+00 -1.643569901E-01 3.454569651E-02
 1.068243924E+00 -2.405741461E-01 3.508806447E-02
 1.063790127E+00 -1.958260814E-01 3.519665603E-02
 1.073363753E+00 -2.017777103E-01 3.542211578E-02
 1.081062929E+00 -2.208840087E-01 3.547698285E-02
 1.081706943E+00 -2.120873367E-01 3.553208795E-02
 9.362842762E-01 -4.718369234E-01 3.199059065E-02
 9.068322395E-01 -4.721921314E-01 3.193878814E-02
 8.783224290E-01 -4.443622770E-01 3.236488274E-02
 8.492548181E-01 -3.986902284E-01 3.245256414E-02
 8.486096674E-01 -3.781370358E-01 3.239570164E-02
 1.072735630E+00 -2.736733122E-01 3.438286201E-02
 1.077448897E+00 -2.633745018E-01 3.464321368E-02
 1.078862758E+00 -2.523156789E-01 3.489309021E-02
 1.056943285E+00 -3.401021660E-01 3.343242096E-02
 1.034521531E+00 -3.771907295E-01 3.311649886E-02
 1.057020784E+00 -3.585457711E-01 3.330100015E-02
 1.009040160E+00 -4.215816174E-01 3.285471311E-02
 1.033551693E+00 -3.994435251E-01 3.302948229E-02
 9.884289146E-01 -4.441307982E-01 3.262493107E-02
 9.659882411E-01 -4.707156211E-01 3.206581234E-02
 1.074892355E+00 -3.212620958E-01 3.366797759E-02
 1.088510830E+00 -3.046479872E-01 3.390622800E-02
 1.087453778E+00 -2.904109471E-01 3.411457911E-02
 1.070373036E+00 -1.882503855E-01 3.526978056E-02
 1.047653238E+00 -1.546105356E-01 3.397591818E-02
 1.040304199E+00 -1.499999695E-01 3.360832137E-02
 1.044296631E+00 -1.499999695E-01 3.375821743E-02
 1.051986189E+00 -1.594000755E-01 3.426659036E-02
 1.072318328E+00 -1.753084482E-01 3.514762625E-02
 1.067704976E+00 -1.697946297E-01 3.494270455E-02
 1.062245693E+00 -1.641336856E-01 3.468025150E-02
 1.056889980E+00 -1.590769730E-01 3.439560590E-02
 1.080023031E+00 -2.301271631E-01 3.535519065E-02
 1.079505182E+00 -2.410784080E-01 3.515062137E-02
 1.070921499E+00 -1.953245128E-01 3.533621791E-02
 1.082295915E+00 -2.035468869E-01 3.554681509E-02
 1.090514102E+00 -2.125048606E-01 3.558902848E-02
 1.090571953E+00 -2.211275539E-01 3.551791708E-02
 9.068493652E-01 -5.000000000E-01 3.159223730E-02
 9.369863281E-01 -5.000000000E-01 3.164096944E-02
 8.773708194E-01 -4.718239041E-01 3.190928610E-02
 8.505491460E-01 -4.448394396E-01 3.235206745E-02
 8.512703688E-01 -4.201268575E-01 3.246821237E-02
 1.090375854E+00 -2.526822489E-01 3.489181661E-02
 1.089432930E+00 -2.642825773E-01 3.462325201E-02
 1.075882251E+00 -3.392640091E-01 3.350112206E-02
 1.056980474E+00 -3.781590665E-01 3.319212453E-02
 1.077163551E+00 -3.577008366E-01 3.336017090E-02
 1.032671293E+00 -4.224250763E-01 3.291553530E-02
 1.006503840E+00 -4.444077377E-01 3.267032919E-02
 1.056845323E+00 -3.999011951E-01 3.309541095E-02
 9.973718804E-01 -4.660063752E-01 3.222557406E-02
 9.671232910E-01 -5.000000000E-01 3.171786398E-02
 1.094021447E+00 -3.179296618E-01 3.373079900E-02
 1.087838950E+00 -2.763763113E-01 3.436405197E-02
 1.099575997E+00 -3.047890944E-01 3.390261710E-02
 1.101122420E+00 -2.908057603E-01 3.409626537E-02
 1.076961735E+00 -1.885809825E-01 3.539048281E-02
 1.077351505E+00 -1.817013445E-01 3.532586984E-02
 1.052094662E+00 -1.546194404E-01 3.411119661E-02
 1.048288940E+00 -1.499999695E-01 3.390390782E-02
 1.072828757E+00 -1.698274022E-01 3.504877321E-02
 1.078055266E+00 -1.757042555E-01 3.524748356E-02
 1.067648167E+00 -1.642790885E-01 3.480744260E-02
 1.062276148E+00 -1.580890910E-01 3.450596604E-02
 1.056484262E+00 -1.544677862E-01 3.422925839E-02
 1.090874220E+00 -2.412819354E-01 3.515894138E-02
 1.091056486E+00 -2.303079663E-01 3.537805805E-02
 1.076159081E+00 -1.954438740E-01 3.543877720E-02
 1.083379158E+00 -1.960932913E-01 3.553125469E-02
 1.090718748E+00 -2.042267573E-01 3.561513425E-02
 1.098967275E+00 -2.125792856E-01 3.560299676E-02
 1.099560366E+00 -2.208028080E-01 3.552708947E-02
 8.767124023E-01 -5.000000000E-01 3.156890104E-02
 8.476390871E-01 -4.706840117E-01 3.191311066E-02
 1.102293870E+00 -2.527803547E-01 3.484934973E-02
 1.102053525E+00 -2.646382504E-01 3.458362374E-02
 1.094513569E+00 -3.379403972E-01 3.353356663E-02
 1.079402357E+00 -3.769331040E-01 3.324657588E-02
 1.096350741E+00 -3.560319285E-01 3.339771334E-02
 1.056696868E+00 -4.226624725E-01 3.296909862E-02
 1.031174405E+00 -4.459121601E-01 3.269047769E-02
 1.079970897E+00 -3.992816817E-01 3.314262443E-02
 9.972602539E-01 -5.000000000E-01 3.178896167E-02
 1.101731241E+00 -2.771049952E-01 3.433064040E-02
 1.114624554E+00 -3.056877917E-01 3.384776304E-02
 1.115665899E+00 -2.908430829E-01 3.404431964E-02
 1.084155225E+00 -1.820888189E-01 3.542272547E-02
 1.083945277E+00 -1.889346014E-01 3.548841037E-02
 1.052281372E+00 -1.499999695E-01 3.403057160E-02
 1.072949095E+00 -1.642854259E-01 3.491539323E-02
 1.078363207E+00 -1.699232212E-01 3.514348997E-02
 1.084192721E+00 -1.758860831E-01 3.533561766E-02
 1.067711816E+00 -1.589029504E-01 3.465876901E-02
 1.060710127E+00 -1.541776458E-01 3.432097639E-02
 1.056273804E+00 -1.499999695E-01 3.414449569E-02
 1.102670604E+00 -2.286741012E-01 3.537111762E-02
 1.102486858E+00 -2.410218380E-01 3.511795175E-02
 1.091081444E+00 -1.964467637E-01 3.560278335E-02
 1.098911710E+00 -2.044181694E-01 3.563806601E-02
 1.105996854E+00 -2.208338850E-01 3.549189114E-02
 1.106812182E+00 -2.125994726E-01 3.557453156E-02
 8.465754395E-01 -5.000000000E-01 3.158332005E-02
 1.114184171E+00 -2.527327351E-01 3.476675998E-02
 1.114703165E+00 -2.643494146E-01 3.451311757E-02
 1.112614482E+00 -3.210087343E-01 3.367570091E-02
 1.111793350E+00 -3.384534785E-01 3.351998934E-02
 1.103482566E+00 -3.725416309E-01 3.328915078E-02
 1.110249716E+00 -3.559092584E-01 3.339598767E-02
 1.056909751E+00 -4.460836154E-01 3.273428498E-02
 1.080165295E+00 -4.221873902E-01 3.300957969E-02
 1.028545983E+00 -4.706956985E-01 3.217417275E-02
 1.103402438E+00 -3.980775912E-01 3.316344417E-02
 1.027397217E+00 -5.000000000E-01 3.180896748E-02
 1.115833185E+00 -2.765381895E-01 3.427024761E-02
 1.130602838E+00 -3.060217343E-01 3.377023293E-02
 1.131045139E+00 -2.903251596E-01 3.395529971E-02
 1.091135878E+00 -1.818363148E-01 3.548707258E-02
 1.091262311E+00 -1.889810969E-01 3.555698434E-02
 1.072883948E+00 -1.588910107E-01 3.476059777E-02
 1.078441479E+00 -1.641419380E-01 3.500634595E-02
 1.084147064E+00 -1.700167470E-01 3.522514699E-02
 1.090430261E+00 -1.757346334E-01 3.539634879E-02
 1.063823124E+00 -1.541542005E-01 3.440714249E-02
 1.068063237E+00 -1.543507008E-01 3.450673517E-02
 1.060266113E+00 -1.499999695E-01 3.424574436E-02
 1.114181599E+00 -2.304082882E-01 3.524365095E-02
 1.114037424E+00 -2.413492803E-01 3.502250465E-02
 1.098930151E+00 -1.964931587E-01 3.563289899E-02
 1.106975712E+00 -2.043837306E-01 3.561909078E-02
 1.115243697E+00 -2.126141319E-01 3.550383388E-02
 1.114944265E+00 -2.212591583E-01 3.540156020E-02
 1.126693315E+00 -2.634854340E-01 3.443612509E-02
 1.125597492E+00 -2.524283254E-01 3.465422954E-02
 1.130015860E+00 -3.219338899E-01 3.361098869E-02