TITLE     = "fluent21.1.0  build-id: 10179"
VARIABLES = "X"
"Y"
"Velocity Magnitude"
DATASETAUXDATA CFDA.ID1="Pressure"
DATASETAUXDATA CFDA.ID2="Density"
DATASETAUXDATA Common.DensityVar="12"
DATASETAUXDATA Common.PressureVar="3"
DATASETAUXDATA Common.UVar="5"
DATASETAUXDATA Common.VectorVarsAreVelocity="TRUE"
DATASETAUXDATA Common.ViscosityVar="14"
DATASETAUXDATA Common.VVar="7"
ZONE T="sur_out"
 STRANDID=1, SOLUTIONTIME=75
 Nodes=14307, Elements=14184, ZONETYPE=FEQuadrilateral
 DATAPACKING=POINT
 FACENEIGHBORCONNECTIONS=1051
 FACENEIGHBORMODE=GLOBALONETOMANY
 DT=(DOUBLE DOUBLE DOUBLE )
 9.063741353E-01 -1.533338230E-01 3.201589751E-02
 9.085549316E-01 -1.499999695E-01 3.200628833E-02
 9.045625610E-01 -1.499999695E-01 3.202242430E-02
 9.113484739E-01 -1.542039737E-01 3.199197473E-02
 9.125473633E-01 -1.499999695E-01 3.198787688E-02
 9.158872510E-01 -1.545530096E-01 3.197074911E-02
 9.165397949E-01 -1.499999695E-01 3.196736658E-02
 9.202813887E-01 -1.546971369E-01 3.195004619E-02
 9.205321655E-01 -1.499999695E-01 3.194734579E-02
 9.153732023E-01 -1.592847587E-01 3.197685201E-02
 9.105860375E-01 -1.589034663E-01 3.199918970E-02
 9.200174968E-01 -1.594914330E-01 3.195523939E-02
 9.246753578E-01 -1.547218036E-01 3.192947841E-02
 9.245245361E-01 -1.499999695E-01 3.192744681E-02
 9.196650126E-01 -1.643875110E-01 3.196034418E-02
 9.149934157E-01 -1.641505016E-01 3.198199861E-02
 9.247319267E-01 -1.595607292E-01 3.193364763E-02
 9.291435651E-01 -1.546135919E-01 3.190870699E-02
 9.285169678E-01 -1.499999695E-01 3.190758832E-02
 9.189842873E-01 -1.693168603E-01 3.196565180E-02
 9.151122900E-01 -1.691581358E-01 3.198556058E-02
 9.246431338E-01 -1.645467493E-01 3.193825545E-02
 9.295641308E-01 -1.594556999E-01 3.191157999E-02
 9.337923174E-01 -1.542675551E-01 3.188731300E-02
 9.325093994E-01 -1.499999695E-01 3.188724275E-02
 9.167942972E-01 -1.739748461E-01 3.197965239E-02
 9.243358033E-01 -1.697051442E-01 3.194366189E-02
 9.298087871E-01 -1.644979192E-01 3.191529202E-02
 9.345369575E-01 -1.591321581E-01 3.188898861E-02
 9.365017700E-01 -1.499999695E-01 3.186905260E-02
 9.389513414E-01 -1.533187119E-01 3.186234102E-02
 9.236803391E-01 -1.752162271E-01 3.195003494E-02
 9.300185846E-01 -1.697216903E-01 3.191874872E-02
 9.349695572E-01 -1.642417479E-01 3.189260148E-02
 9.397825131E-01 -1.585509680E-01 3.186541742E-02
 9.404941406E-01 -1.499999695E-01 3.185385496E-02
 9.303635284E-01 -1.753017109E-01 3.192227028E-02
 9.232161545E-01 -1.818583126E-01 3.195636092E-02
 9.163281153E-01 -1.813740034E-01 3.198543859E-02
 9.355252294E-01 -1.693559242E-01 3.189600518E-02
 9.399633246E-01 -1.639624724E-01 3.187014772E-02
 9.441600496E-01 -1.537686594E-01 3.184019289E-02
 9.456402443E-01 -1.577784576E-01 3.183891828E-02
 9.444865723E-01 -1.499999695E-01 3.183736647E-02
 9.301936990E-01 -1.820288982E-01 3.192723771E-02
 9.375023765E-01 -1.742006914E-01 3.189105289E-02
 9.226345849E-01 -1.887680603E-01 3.196241699E-02
 9.156516954E-01 -1.882958119E-01 3.199138683E-02
 9.395692581E-01 -1.692421958E-01 3.187620069E-02
 9.454886739E-01 -1.637986387E-01 3.184700608E-02
 9.475435346E-01 -1.539670303E-01 3.182413232E-02
 9.484789429E-01 -1.499999695E-01 3.181998961E-02
 9.298106929E-01 -1.890515631E-01 3.193340555E-02
 9.373303169E-01 -1.818673785E-01 3.189805994E-02
 9.146945579E-01 -1.951420841E-01 3.199770566E-02
 9.218328787E-01 -1.958039722E-01 3.196876008E-02
 9.452493199E-01 -1.694314229E-01 3.185428451E-02
 9.511950355E-01 -1.587907318E-01 3.181631561E-02
 9.510647509E-01 -1.640042044E-01 3.182400966E-02
 9.518771220E-01 -1.543079604E-01 3.180739051E-02
 9.524713745E-01 -1.499999695E-01 3.180280856E-02
 9.292868377E-01 -1.962430231E-01 3.193974800E-02
 9.370960359E-01 -1.891317932E-01 3.190437651E-02
 9.447235495E-01 -1.752362476E-01 3.186200059E-02
 9.445091721E-01 -1.820998357E-01 3.186934699E-02
 9.207163849E-01 -2.030311773E-01 3.197493767E-02
 9.148725468E-01 -2.026967259E-01 3.200176338E-02
 9.511988423E-01 -1.694421555E-01 3.182980606E-02
 9.561771036E-01 -1.590482617E-01 3.179629117E-02
 9.563496295E-01 -1.639608538E-01 3.180260659E-02
 9.562857932E-01 -1.544540392E-01 3.178904412E-02
 9.564637451E-01 -1.499999695E-01 3.178520702E-02
 9.368725146E-01 -1.964014959E-01 3.191021601E-02
 9.286355164E-01 -2.037008615E-01 3.194622589E-02
 9.443383146E-01 -1.892000339E-01 3.187599837E-02
 9.516133455E-01 -1.752047448E-01 3.183500470E-02
 9.516099804E-01 -1.820850048E-01 3.184131927E-02
 9.175400052E-01 -2.099185105E-01 3.199219341E-02
 9.568465485E-01 -1.691022408E-01 3.180778166E-02
 9.608675286E-01 -1.589544656E-01 3.177686885E-02
 9.612956248E-01 -1.636571894E-01 3.178210320E-02
 9.606200050E-01 -1.544334409E-01 3.177114780E-02
 9.604561768E-01 -1.499999695E-01 3.176787820E-02
 9.442580699E-01 -1.963791091E-01 3.188203155E-02
 9.368548601E-01 -2.038575609E-01 3.191466673E-02
 9.276997878E-01 -2.116763707E-01 3.195299473E-02
 9.514582129E-01 -1.892047088E-01 3.184850409E-02
 9.588880322E-01 -1.740253153E-01 3.180494074E-02
 9.588240880E-01 -1.818227195E-01 3.181368521E-02
 9.609441486E-01 -1.689537052E-01 3.178893277E-02
 9.653773338E-01 -1.586410441E-01 3.175923604E-02
 9.670170424E-01 -1.627240439E-01 3.175837199E-02
 9.648728507E-01 -1.542952404E-01 3.175393887E-02
 9.644485474E-01 -1.499999695E-01 3.175100177E-02
 9.446877757E-01 -2.035377877E-01 3.188640635E-02
 9.511387018E-01 -1.963991800E-01 3.185546134E-02
 9.372382573E-01 -2.118070106E-01 3.191812499E-02
 9.273936275E-01 -2.212738868E-01 3.195778044E-02
 9.173436780E-01 -2.209147683E-01 3.199555764E-02
 9.587182113E-01 -1.891619236E-01 3.182137636E-02
 9.662120305E-01 -1.750431663E-01 3.177805826E-02
 9.660752234E-01 -1.820083639E-01 3.178678985E-02
 9.667444453E-01 -1.690038490E-01 3.176847208E-02
 9.687604493E-01 -1.585520757E-01 3.174378784E-02
 9.690536032E-01 -1.540762192E-01 3.173684757E-02
 9.684409790E-01 -1.499999695E-01 3.173397403E-02
 9.473418218E-01 -2.103881614E-01 3.187979175E-02
 9.503205897E-01 -2.035624704E-01 3.186229555E-02
 9.585223694E-01 -1.964824224E-01 3.182874148E-02
 9.370974519E-01 -2.213380127E-01 3.192170987E-02
 9.274657950E-01 -2.311744584E-01 3.195996466E-02
 9.174098815E-01 -2.312835999E-01 3.199669139E-02
 9.660488459E-01 -1.891667801E-01 3.179463069E-02
 9.731355162E-01 -1.751248668E-01 3.175329430E-02
 9.732086682E-01 -1.819903500E-01 3.176089625E-02
 9.728042098E-01 -1.692841454E-01 3.174604708E-02
 9.729120411E-01 -1.637297756E-01 3.173723712E-02
 9.736054537E-01 -1.587291759E-01 3.172694739E-02
 9.741509171E-01 -1.534289073E-01 3.171585358E-02
 9.724333496E-01 -1.499999695E-01 3.171804977E-02
 9.470720462E-01 -2.211245157E-01 3.188611668E-02
 9.581385170E-01 -2.039606401E-01 3.183626326E-02
 9.660989304E-01 -1.964433305E-01 3.180165103E-02
 9.367641620E-01 -2.311902646E-01 3.192560800E-02
 9.283813001E-01 -2.409853805E-01 3.196015028E-02
 9.179457012E-01 -2.416575019E-01 3.199590326E-02
 9.732910748E-01 -1.890776735E-01 3.176887467E-02
 9.803246555E-01 -1.741424713E-01 3.172610157E-02
 9.803328513E-01 -1.817290196E-01 3.173590771E-02
 9.784331753E-01 -1.692470078E-01 3.172636522E-02
 9.782331320E-01 -1.641461778E-01 3.171864688E-02
 9.786128642E-01 -1.591705864E-01 3.170899719E-02
 9.792477509E-01 -1.543140108E-01 3.169788529E-02
 9.764257813E-01 -1.499999695E-01 3.170533206E-02
 9.573904399E-01 -2.119090223E-01 3.184426685E-02
 9.467274024E-01 -2.313271992E-01 3.189100260E-02
 9.571384466E-01 -2.214621281E-01 3.185086882E-02
 9.663389475E-01 -2.039076741E-01 3.180734451E-02
 9.734896398E-01 -1.962497895E-01 3.177592283E-02
 9.358775141E-01 -2.409695196E-01 3.192942644E-02
 9.322361904E-01 -2.501400422E-01 3.194577942E-02
 9.191904432E-01 -2.524483661E-01 3.199264009E-02
 9.804112004E-01 -1.889173528E-01 3.174413401E-02
 9.873459249E-01 -1.752232714E-01 3.170308912E-02
 9.873888338E-01 -1.818531253E-01 3.171206391E-02
 9.823758098E-01 -1.693881911E-01 3.171039669E-02
 9.829874433E-01 -1.644041921E-01 3.170156138E-02
 9.833790799E-01 -1.594618640E-01 3.169210060E-02
 9.804181519E-01 -1.499999695E-01 3.169191657E-02
 9.838183274E-01 -1.546364899E-01 3.168182854E-02
 9.669599122E-01 -2.118425983E-01 3.181203770E-02
 9.461642621E-01 -2.415763608E-01 3.189616467E-02
 9.570313596E-01 -2.314700704E-01 3.185560908E-02
 9.671102830E-01 -2.213833227E-01 3.181683253E-02
 9.741710821E-01 -2.034136964E-01 3.178135262E-02
 9.804011012E-01 -1.960898447E-01 3.175180013E-02
 9.068370381E-01 -2.419266309E-01 3.203636674E-02
 9.067628360E-01 -2.530357910E-01 3.203639564E-02
 9.198820597E-01 -2.649852497E-01 3.198806704E-02
 9.327691378E-01 -2.641116002E-01 3.194424327E-02
 9.876159369E-01 -1.887726030E-01 3.172003507E-02
 9.939136069E-01 -1.751529411E-01 3.168175818E-02
 9.942586497E-01 -1.816650765E-01 3.168931099E-02
 9.877585564E-01 -1.697317691E-01 3.169367596E-02
 9.879718604E-01 -1.645903207E-01 3.168462973E-02
 9.881076958E-01 -1.596093971E-01 3.167564440E-02
 9.844105835E-01 -1.499999695E-01 3.167644215E-02
 9.882419429E-01 -1.547528553E-01 3.166627318E-02
 9.770372359E-01 -2.102161902E-01 3.177673403E-02
 9.450411483E-01 -2.522147691E-01 3.190118382E-02
 9.570537168E-01 -2.418094098E-01 3.185934126E-02
 9.673297280E-01 -2.313318819E-01 3.182130059E-02
 9.770854882E-01 -2.209457359E-01 3.178418816E-02
 9.798368819E-01 -2.032983154E-01 3.175941018E-02
 9.878709144E-01 -1.959099152E-01 3.172751042E-02
 9.067203562E-01 -2.653684258E-01 3.203444536E-02
 9.447286606E-01 -2.644611246E-01 3.190311403E-02
 9.343255005E-01 -2.768840028E-01 3.194060249E-02
 9.208962641E-01 -2.780353609E-01 3.198382007E-02
 9.947876259E-01 -1.883931451E-01 3.169644552E-02
 1.000690555E+00 -1.739601030E-01 3.165808794E-02
 1.000926159E+00 -1.812086260E-01 3.166801389E-02
 9.933389181E-01 -1.697106541E-01 3.167481188E-02
 9.930365016E-01 -1.645875971E-01 3.166744039E-02
 9.928402608E-01 -1.596098277E-01 3.165937366E-02
 9.884029541E-01 -1.499999695E-01 3.166144442E-02
 9.926387885E-01 -1.547523025E-01 3.165098844E-02
 9.571221407E-01 -2.527076542E-01 3.186187737E-02
 9.679851611E-01 -2.415025012E-01 3.182360852E-02
 9.773058574E-01 -2.310127290E-01 3.178936392E-02
 9.871328151E-01 -2.115806049E-01 3.174491747E-02
 9.869016203E-01 -2.211811315E-01 3.175304694E-02
 9.877571420E-01 -2.034852459E-01 3.173573010E-02
 9.957147516E-01 -1.952966430E-01 3.170245700E-02
 9.067031130E-01 -2.785026077E-01 3.203273731E-02
 9.572339406E-01 -2.647169730E-01 3.186265653E-02
 9.439883844E-01 -2.768074932E-01 3.190342622E-02
 9.397110436E-01 -2.885719396E-01 3.192114247E-02
 9.227243225E-01 -2.917815427E-01 3.197858853E-02
 1.001551095E+00 -1.878025098E-01 3.167550337E-02
 9.986329747E-01 -1.693362215E-01 3.165767931E-02
 1.007491478E+00 -1.748834593E-01 3.163822840E-02
 1.007192820E+00 -1.813851911E-01 3.164860776E-02
 9.979870857E-01 -1.644108945E-01 3.165092712E-02
 9.975700752E-01 -1.594697491E-01 3.164328734E-02
 9.923953857E-01 -1.499999695E-01 3.164672600E-02
 9.970696896E-01 -1.546364409E-01 3.163583582E-02
 9.692933714E-01 -2.520998592E-01 3.182346485E-02
 9.783001551E-01 -2.407695002E-01 3.179222010E-02
 9.866085367E-01 -2.310306763E-01 3.175976545E-02
 9.968483057E-01 -2.114502816E-01 3.171586204E-02
 9.968185359E-01 -2.211843737E-01 3.172299272E-02
 9.962019609E-01 -2.031574062E-01 3.170898658E-02
 1.004003505E+00 -1.937188692E-01 3.167525139E-02
 9.067015748E-01 -2.926002558E-01 3.203239279E-02
 8.925123049E-01 -2.780349790E-01 3.208350541E-02
 8.935580071E-01 -2.649807093E-01 3.208209200E-02
 9.699907934E-01 -2.643649974E-01 3.182229891E-02
 9.572165011E-01 -2.773098890E-01 3.186383364E-02
 9.407412899E-01 -3.067220843E-01 3.191708850E-02
 9.236165758E-01 -3.079155978E-01 3.197280620E-02
 1.006470294E+00 -1.878372613E-01 3.165864133E-02
 1.002488555E+00 -1.692192670E-01 3.164341796E-02
 1.014157245E+00 -1.748517639E-01 3.161911211E-02
 1.013860520E+00 -1.815634688E-01 3.162954880E-02
 1.007913779E+00 -1.693151555E-01 3.162809182E-02
 1.002689366E+00 -1.642182297E-01 3.163512819E-02
 1.002364226E+00 -1.592009916E-01 3.162703346E-02
 9.963877563E-01 -1.499999695E-01 3.163224982E-02
 1.001666064E+00 -1.543141615E-01 3.162028056E-02
 9.821512810E-01 -2.498188581E-01 3.178238010E-02
 9.857583208E-01 -2.407439126E-01 3.176580420E-02
 9.965617633E-01 -2.312002400E-01 3.173050255E-02
 1.007272098E+00 -2.098788531E-01 3.168370310E-02
 1.007023092E+00 -2.209161968E-01 3.169369826E-02
 1.004499131E+00 -2.023923531E-01 3.168463806E-02
 9.067097124E-01 -3.083706348E-01 3.203032905E-02
 8.906812866E-01 -2.917799313E-01 3.208818272E-02
 8.790728965E-01 -2.768838417E-01 3.212855215E-02
 8.806486945E-01 -2.641027523E-01 3.212854355E-02
 9.826148072E-01 -2.635783643E-01 3.178433456E-02
 9.709297194E-01 -2.770095879E-01 3.182108514E-02
 9.567757205E-01 -2.906645749E-01 3.186579086E-02
 9.243357852E-01 -3.248018454E-01 3.197047382E-02
 9.419928547E-01 -3.239108556E-01 3.191288461E-02
 9.576728538E-01 -3.064869275E-01 3.186367100E-02
 1.013112649E+00 -1.883809612E-01 3.164146494E-02
 1.013771822E+00 -1.691265416E-01 3.161023171E-02
 1.021468092E+00 -1.737549512E-01 3.159679804E-02
 1.020947098E+00 -1.815627078E-01 3.161015911E-02
 1.007889739E+00 -1.640053539E-01 3.161880429E-02
 1.007503466E+00 -1.587769358E-01 3.161034456E-02
 1.000380188E+00 -1.499999695E-01 3.161751910E-02
 1.006827689E+00 -1.534067646E-01 3.160180174E-02
 9.960096374E-01 -2.413572621E-01 3.173779992E-02
 1.006899339E+00 -2.312336484E-01 3.170107273E-02
 1.017452126E+00 -2.118270622E-01 3.165679602E-02
 1.017115003E+00 -2.213667716E-01 3.166624774E-02
 1.010537838E+00 -2.028083718E-01 3.166503922E-02
 1.011786483E+00 -1.952493254E-01 3.165367507E-02
 9.067249671E-01 -3.251146642E-01 3.202987075E-02
 8.898032533E-01 -3.079100332E-01 3.208990295E-02
 8.736865310E-01 -2.885695734E-01 3.215033032E-02
 9.944390389E-01 -2.639962913E-01 3.174928290E-02
 9.948606783E-01 -2.519014778E-01 3.174483392E-02
 9.839669064E-01 -2.760570244E-01 3.178379216E-02
 9.725871000E-01 -2.902282876E-01 3.181865463E-02
 9.594856224E-01 -3.227741688E-01 3.185852154E-02
 9.434661810E-01 -3.413816075E-01 3.191030216E-02
 9.250363948E-01 -3.423088245E-01 3.197048089E-02
 9.737675106E-01 -3.057289841E-01 3.181495259E-02
 1.020312615E+00 -1.888121733E-01 3.162219794E-02
 1.019569441E+00 -1.686170447E-01 3.159333829E-02
 1.013419875E+00 -1.636679744E-01 3.160161649E-02
 1.028728477E+00 -1.752319206E-01 3.157954241E-02
 1.028139050E+00 -1.820969622E-01 3.159177668E-02
 1.012899502E+00 -1.584624384E-01 3.159356734E-02
 1.004372559E+00 -1.499999695E-01 3.160392617E-02
 1.012206376E+00 -1.539245205E-01 3.158597586E-02
 1.006892388E+00 -2.415815950E-01 3.170704971E-02
 1.017205542E+00 -2.312355109E-01 3.167304541E-02
 1.026820200E+00 -2.123498845E-01 3.163310102E-02
 1.026816694E+00 -2.214929710E-01 3.164098278E-02
 1.018613808E+00 -2.037115989E-01 3.164545549E-02
 1.019495427E+00 -1.960691637E-01 3.163390361E-02
 9.067443124E-01 -3.425829471E-01 3.203219234E-02
 8.891142460E-01 -3.247925433E-01 3.209123658E-02
 8.726743515E-01 -3.067092743E-01 3.215155708E-02
 1.006909666E+00 -2.524179407E-01 3.171182975E-02
 1.006889704E+00 -2.643276282E-01 3.171509264E-02
 9.934625401E-01 -2.760862675E-01 3.175234318E-02
 9.888897497E-01 -2.874654172E-01 3.176982714E-02
 9.624079187E-01 -3.395033110E-01 3.185266921E-02
 9.759392371E-01 -3.211722543E-01 3.181114575E-02
 9.444411152E-01 -3.597867272E-01 3.190967868E-02
 9.256142291E-01 -3.604728859E-01 3.197123725E-02
 9.889059610E-01 -3.049446257E-01 3.177040074E-02
 1.027681045E+00 -1.891904668E-01 3.160322354E-02
 1.023938197E+00 -1.685113190E-01 3.157975659E-02
 1.019085204E+00 -1.630263163E-01 3.158467420E-02
 1.035479929E+00 -1.757470189E-01 3.156351283E-02
 1.035189890E+00 -1.823696089E-01 3.157442816E-02
 1.029818721E+00 -1.693054744E-01 3.156669752E-02
 1.018436000E+00 -1.574394115E-01 3.157522550E-02
 1.008364990E+00 -1.499999695E-01 3.159327112E-02
 1.016718391E+00 -1.538039619E-01 3.157295052E-02
 1.012357361E+00 -1.499999695E-01 3.158207545E-02
 1.017811475E+00 -2.413044832E-01 3.167754915E-02
 1.027078813E+00 -2.310351562E-01 3.164755046E-02
 1.026984468E+00 -2.041441943E-01 3.162396215E-02
 1.036061047E+00 -2.119493435E-01 3.161017877E-02
 1.036308844E+00 -2.212337423E-01 3.161712435E-02
 1.027275139E+00 -1.964907914E-01 3.161397538E-02
 9.067655482E-01 -3.606977544E-01 3.203522405E-02
 8.884516377E-01 -3.422963867E-01 3.209586439E-02
 8.714539094E-01 -3.238906114E-01 3.215464168E-02
 1.019079774E+00 -2.518174668E-01 3.167981622E-02
 1.019695309E+00 -2.640126327E-01 3.168116901E-02
 1.006568766E+00 -2.767817507E-01 3.171885239E-02
 9.826511967E-01 -3.352695152E-01 3.179168148E-02
 9.640355210E-01 -3.585531410E-01 3.184929135E-02
 9.879115907E-01 -3.208320950E-01 3.177126705E-02
 9.446452900E-01 -3.787246193E-01 3.191126792E-02
 9.262119695E-01 -3.791015272E-01 3.197313218E-02
 1.005069293E+00 -3.057074201E-01 3.172653434E-02
 1.005526241E+00 -2.900108809E-01 3.172369651E-02
 1.034990972E+00 -1.893434817E-01 3.158505484E-02
 1.024888044E+00 -1.623260025E-01 3.156680871E-02
 1.035867906E+00 -1.697907632E-01 3.155236592E-02
 1.042143948E+00 -1.755737398E-01 3.154750384E-02
 1.042153350E+00 -1.822870006E-01 3.155752751E-02
 1.030737879E+00 -1.636732847E-01 3.155383481E-02
 1.023587639E+00 -1.580366065E-01 3.156192738E-02
 1.019862928E+00 -1.538203832E-01 3.156271868E-02
 1.016349792E+00 -1.499999695E-01 3.156967140E-02
 1.028093704E+00 -2.405739224E-01 3.165196109E-02
 1.036277261E+00 -2.308367923E-01 3.162434641E-02
 1.035242738E+00 -2.040331018E-01 3.160317639E-02
 1.045877857E+00 -2.101843784E-01 3.158519499E-02
 1.046103683E+00 -2.206594954E-01 3.159423517E-02
 1.034947869E+00 -1.965592114E-01 3.159486221E-02
 9.067857807E-01 -3.793345869E-01 3.203959674E-02
 8.879157122E-01 -3.604570803E-01 3.210097468E-02
 8.700191805E-01 -3.413556752E-01 3.216189959E-02
 1.031952759E+00 -2.495068194E-01 3.164592482E-02
 1.032438745E+00 -2.631898499E-01 3.164963351E-02
 1.020415262E+00 -2.766127875E-01 3.168251162E-02
 9.843315031E-01 -3.566799881E-01 3.179103413E-02
 9.649483986E-01 -3.781852835E-01 3.184935940E-02
 1.004192579E+00 -3.218260145E-01 3.173011663E-02
 9.429487128E-01 -3.977789729E-01 3.189870770E-02
 9.277622974E-01 -3.978029262E-01 3.196046188E-02
 1.021597073E+00 -2.899476318E-01 3.168303035E-02
 1.021659273E+00 -3.058968806E-01 3.168323585E-02
 1.042145902E+00 -1.892670184E-01 3.156787212E-02
 1.036390991E+00 -1.642355829E-01 3.154085679E-02
 1.041791684E+00 -1.698544498E-01 3.153815658E-02
 1.049160449E+00 -1.744134297E-01 3.152956574E-02
 1.049140680E+00 -1.819405581E-01 3.154145050E-02
 1.027073125E+00 -1.583287164E-01 3.155192587E-02
 1.031848296E+00 -1.587806037E-01 3.154126141E-02
 1.023938519E+00 -1.540039568E-01 3.155268520E-02
 1.020342163E+00 -1.499999695E-01 3.155853392E-02
 1.035531769E+00 -2.404492309E-01 3.163091963E-02
 1.046259791E+00 -2.306221716E-01 3.160144599E-02
 1.042988800E+00 -2.034855522E-01 3.158487634E-02
 1.055973690E+00 -2.206014222E-01 3.157261866E-02
 1.055680260E+00 -2.114715847E-01 3.156471308E-02
 1.042291016E+00 -1.963813606E-01 3.157727150E-02
 9.068004778E-01 -3.984457815E-01 3.202935311E-02
 8.873592113E-01 -3.790769056E-01 3.210715809E-02
 8.690841358E-01 -3.597593576E-01 3.216919243E-02
 1.044344285E+00 -2.634791002E-01 3.162109216E-02
 1.044669175E+00 -2.514827719E-01 3.161627570E-02
 1.033798499E+00 -2.756601935E-01 3.165075431E-02
 1.002665734E+00 -3.381599278E-01 3.173620408E-02
 1.003879218E+00 -3.561544556E-01 3.173913063E-02
 9.867281156E-01 -3.766466257E-01 3.178675556E-02
 9.643301983E-01 -3.987488889E-01 3.183175642E-02
 1.021131553E+00 -3.224610278E-01 3.168586346E-02
 9.350282856E-01 -4.157873574E-01 3.184268414E-02
 1.038785823E+00 -2.872267166E-01 3.164008338E-02
 1.038829249E+00 -3.053801849E-01 3.164188702E-02
 1.049153346E+00 -1.890904333E-01 3.155175100E-02
 1.037091881E+00 -1.589661002E-01 3.152881173E-02
 1.041873980E+00 -1.644796116E-01 3.152817223E-02
 1.047287922E+00 -1.695766075E-01 3.152539681E-02
 1.056042522E+00 -1.754239693E-01 3.151638634E-02
 1.056108855E+00 -1.819876856E-01 3.152661563E-02
 1.027958339E+00 -1.541201145E-01 3.154177725E-02
 1.032490655E+00 -1.541073531E-01 3.153032612E-02
 1.024334595E+00 -1.499999695E-01 3.154770630E-02
 1.045828857E+00 -2.408699519E-01 3.160885555E-02
 1.056886297E+00 -2.301017832E-01 3.157834694E-02
 1.048555493E+00 -2.033559164E-01 3.157016128E-02
 1.056276938E+00 -2.035330467E-01 3.155510418E-02
 1.065241950E+00 -2.201430435E-01 3.155407091E-02
 1.064593588E+00 -2.115532101E-01 3.154691144E-02
 1.049087521E+00 -1.962346501E-01 3.156129698E-02
 9.068077271E-01 -4.187775542E-01 3.192744426E-02
 8.858366386E-01 -3.977729650E-01 3.210041397E-02
 8.689134970E-01 -3.786995827E-01 3.217672531E-02
 1.056744674E+00 -2.636151208E-01 3.159420319E-02
 1.056592794E+00 -2.520383483E-01 3.159089935E-02
 1.043556267E+00 -2.755225941E-01 3.162424286E-02
 1.019946789E+00 -3.393549145E-01 3.169099543E-02
 1.017854444E+00 -3.566881638E-01 3.169663061E-02
 1.010607883E+00 -3.729733136E-01 3.172027188E-02
 9.869848428E-01 -3.987098325E-01 3.176155188E-02
 9.623207044E-01 -4.201913732E-01 3.172369132E-02
 1.038704166E+00 -3.226216081E-01 3.164366228E-02
 1.056166039E+00 -3.057322725E-01 3.160295153E-02
 1.056148025E+00 -2.896229789E-01 3.160100048E-02
 1.056244605E+00 -1.889629742E-01 3.153640775E-02
 1.037840867E+00 -1.534920315E-01 3.151562806E-02
 1.042299371E+00 -1.593207424E-01 3.151701900E-02
 1.047032075E+00 -1.644912176E-01 3.151641456E-02
 1.051187172E+00 -1.695522735E-01 3.151552013E-02
 1.062354506E+00 -1.755390303E-01 3.150396740E-02
 1.063013012E+00 -1.816560238E-01 3.151255500E-02
 1.056565979E+00 -1.697809450E-01 3.150568970E-02
 1.032319336E+00 -1.499999695E-01 3.152555424E-02
 1.028327026E+00 -1.499999695E-01 3.153679556E-02
 1.056878557E+00 -2.409142160E-01 3.158464377E-02
 1.068463140E+00 -2.282225680E-01 3.155335288E-02
 1.056352823E+00 -1.961344273E-01 3.154582960E-02
 1.064509865E+00 -2.031731251E-01 3.153829839E-02
 1.071920496E+00 -2.201667041E-01 3.153925722E-02
 1.072909576E+00 -2.114014950E-01 3.153081651E-02
 9.068182925E-01 -4.449716623E-01 3.152001401E-02
 9.353019866E-01 -4.443859605E-01 3.142020365E-02
 8.785745141E-01 -4.157589450E-01 3.205592115E-02
 8.706354072E-01 -3.977550713E-01 3.217121707E-02
 1.057296869E+00 -2.756371220E-01 3.159664991E-02
 1.068762050E+00 -2.631930255E-01 3.157035423E-02
 1.068113809E+00 -2.520448856E-01 3.156766419E-02
 1.038129227E+00 -3.400674631E-01 3.164778820E-02
 1.036906240E+00 -3.581489277E-01 3.165438786E-02
 1.010056103E+00 -3.981865934E-01 3.169644102E-02
 9.867248712E-01 -4.211767681E-01 3.164553615E-02
 9.630483123E-01 -4.448957992E-01 3.133607898E-02
 1.056685842E+00 -3.224522660E-01 3.160308882E-02
 1.072977162E+00 -3.053723308E-01 3.156788884E-02
 1.072331383E+00 -2.897856007E-01 3.156832077E-02
 1.063356575E+00 -1.886713248E-01 3.152166560E-02
 1.043017987E+00 -1.543594811E-01 3.150500157E-02
 1.036311768E+00 -1.499999695E-01 3.151461207E-02
 1.047235427E+00 -1.594574017E-01 3.150607914E-02
 1.051757336E+00 -1.644485769E-01 3.150565816E-02
 1.068154472E+00 -1.752695380E-01 3.149281802E-02
 1.070240079E+00 -1.804360437E-01 3.149710629E-02
 1.062213277E+00 -1.698100366E-01 3.149457226E-02
 1.056854319E+00 -1.643569901E-01 3.149492435E-02
 1.068243924E+00 -2.405741461E-01 3.156170078E-02
 1.063790127E+00 -1.958260814E-01 3.153040010E-02
 1.073363753E+00 -2.017777103E-01 3.151986952E-02
 1.081062929E+00 -2.208840087E-01 3.152460196E-02
 1.081706943E+00 -2.120873367E-01 3.151603244E-02
 9.362842762E-01 -4.718369234E-01 3.078487411E-02
 9.068322395E-01 -4.721921314E-01 3.085394065E-02
 8.783224290E-01 -4.443622770E-01 3.163498871E-02
 8.492548181E-01 -3.986902284E-01 3.224904050E-02
 8.486096674E-01 -3.781370358E-01 3.225323718E-02
 1.072735630E+00 -2.736733122E-01 3.156392756E-02
 1.077448897E+00 -2.633745018E-01 3.155089450E-02
 1.078862758E+00 -2.523156789E-01 3.154667511E-02
 1.056943285E+00 -3.401021660E-01 3.160497853E-02
 1.034521531E+00 -3.771907295E-01 3.165925961E-02
 1.057020784E+00 -3.585457711E-01 3.160805377E-02
 1.009040160E+00 -4.215816174E-01 3.157349309E-02
 1.033551693E+00 -3.994435251E-01 3.163302562E-02
 9.884289146E-01 -4.441307982E-01 3.130144711E-02
 9.659882411E-01 -4.707156211E-01 3.074336993E-02
 1.074892355E+00 -3.212620958E-01 3.156534449E-02
 1.088510830E+00 -3.046479872E-01 3.153909801E-02
 1.087453778E+00 -2.904109471E-01 3.153991046E-02
 1.070373036E+00 -1.882503855E-01 3.150817717E-02
 1.047653238E+00 -1.546105356E-01 3.149505310E-02
 1.040304199E+00 -1.499999695E-01 3.150655771E-02
 1.044296631E+00 -1.499999695E-01 3.149878629E-02
 1.051986189E+00 -1.594000755E-01 3.149556185E-02
 1.072318328E+00 -1.753084482E-01 3.148434431E-02
 1.067704976E+00 -1.697946297E-01 3.148420372E-02
 1.062245693E+00 -1.641336856E-01 3.148415092E-02
 1.056889980E+00 -1.590769730E-01 3.148494899E-02
 1.080023031E+00 -2.301271631E-01 3.153284956E-02
 1.079505182E+00 -2.410784080E-01 3.154058034E-02
 1.070921499E+00 -1.953245128E-01 3.151671005E-02
 1.082295915E+00 -2.035468869E-01 3.150618817E-02
 1.090514102E+00 -2.125048606E-01 3.150206194E-02
 1.090571953E+00 -2.211275539E-01 3.150890532E-02
 9.068493652E-01 -5.000000000E-01 3.050601285E-02
 9.369863281E-01 -5.000000000E-01 3.046207875E-02
 8.773708194E-01 -4.718239041E-01 3.093877890E-02
 8.505491460E-01 -4.448394396E-01 3.177604534E-02
 8.512703688E-01 -4.201268575E-01 3.215149696E-02
 1.090375854E+00 -2.526822489E-01 3.152660993E-02
 1.089432930E+00 -2.642825773E-01 3.153107041E-02
 1.075882251E+00 -3.392640091E-01 3.156499926E-02
 1.056980474E+00 -3.781590665E-01 3.160658843E-02
 1.077163551E+00 -3.577008366E-01 3.156548113E-02
 1.032671293E+00 -4.224250763E-01 3.149738267E-02
 1.006503840E+00 -4.444077377E-01 3.123193458E-02
 1.056845323E+00 -3.999011951E-01 3.157324164E-02
 9.973718804E-01 -4.660063752E-01 3.077577550E-02
 9.671232910E-01 -5.000000000E-01 3.044781583E-02
 1.094021447E+00 -3.179296618E-01 3.152784877E-02
 1.087838950E+00 -2.763763113E-01 3.153599353E-02
 1.099575997E+00 -3.047890944E-01 3.151619220E-02
 1.101122420E+00 -2.908057603E-01 3.151525249E-02
 1.076961735E+00 -1.885809825E-01 3.149661474E-02
 1.077351505E+00 -1.817013445E-01 3.148629616E-02
 1.052094662E+00 -1.546194404E-01 3.148546651E-02
 1.048288940E+00 -1.499999695E-01 3.148935430E-02
 1.072828757E+00 -1.698274022E-01 3.147492453E-02
 1.078055266E+00 -1.757042555E-01 3.147610251E-02
 1.067648167E+00 -1.642790885E-01 3.147420202E-02
 1.062276148E+00 -1.580890910E-01 3.147244292E-02
 1.056484262E+00 -1.544677862E-01 3.147598135E-02
 1.090874220E+00 -2.412819354E-01 3.152095987E-02
 1.091056486E+00 -2.303079663E-01 3.151480985E-02
 1.076159081E+00 -1.954438740E-01 3.150621105E-02
 1.083379158E+00 -1.960932913E-01 3.149586933E-02
 1.090718748E+00 -2.042267573E-01 3.149352986E-02
 1.098967275E+00 -2.125792856E-01 3.148923516E-02
 1.099560366E+00 -2.208028080E-01 3.149517799E-02
 8.767124023E-01 -5.000000000E-01 3.055801523E-02
 8.476390871E-01 -4.706840117E-01 3.105840061E-02
 1.102293870E+00 -2.527803547E-01 3.150718850E-02
 1.102053525E+00 -2.646382504E-01 3.150999711E-02
 1.094513569E+00 -3.379403972E-01 3.152927114E-02
 1.079402357E+00 -3.769331040E-01 3.155885878E-02
 1.096350741E+00 -3.560319285E-01 3.152930674E-02
 1.056696868E+00 -4.226624725E-01 3.143181273E-02
 1.031174405E+00 -4.459121601E-01 3.111319453E-02
 1.079970897E+00 -3.992816817E-01 3.152147150E-02
 9.972602539E-01 -5.000000000E-01 3.044204046E-02
 1.101731241E+00 -2.771049952E-01 3.151264805E-02
 1.114624554E+00 -3.056877917E-01 3.149308647E-02
 1.115665899E+00 -2.908430829E-01 3.149198791E-02
 1.084155225E+00 -1.820888189E-01 3.147598148E-02
 1.083945277E+00 -1.889346014E-01 3.148573401E-02
 1.052281372E+00 -1.499999695E-01 3.148033138E-02
 1.072949095E+00 -1.642854259E-01 3.146484747E-02
 1.078363207E+00 -1.699232212E-01 3.146604036E-02
 1.084192721E+00 -1.758860831E-01 3.146666734E-02
 1.067711816E+00 -1.589029504E-01 3.146387646E-02
 1.060710127E+00 -1.541776458E-01 3.146714949E-02
 1.056273804E+00 -1.499999695E-01 3.147158500E-02
 1.102670604E+00 -2.286741012E-01 3.149564867E-02
 1.102486858E+00 -2.410218380E-01 3.150257741E-02
 1.091081444E+00 -1.964467637E-01 3.148420301E-02
 1.098911710E+00 -2.044181694E-01 3.148158657E-02
 1.105996854E+00 -2.208338850E-01 3.148442419E-02
 1.106812182E+00 -2.125994726E-01 3.147789841E-02
 8.465754395E-01 -5.000000000E-01 3.062890865E-02
 1.114184171E+00 -2.527327351E-01 3.148945020E-02
 1.114703165E+00 -2.643494146E-01 3.149070715E-02
 1.112614482E+00 -3.210087343E-01 3.149541785E-02
 1.111793350E+00 -3.384534785E-01 3.149794324E-02
 1.103482566E+00 -3.725416309E-01 3.151195260E-02
 1.110249716E+00 -3.559092584E-01 3.149996316E-02
 1.056909751E+00 -4.460836154E-01 3.104629687E-02
 1.080165295E+00 -4.221873902E-01 3.138309082E-02
 1.028545983E+00 -4.706956985E-01 3.062615067E-02
 1.103402438E+00 -3.980775912E-01 3.147506452E-02
 1.027397217E+00 -5.000000000E-01 3.041452244E-02
 1.115833185E+00 -2.765381895E-01 3.149105069E-02
 1.130602838E+00 -3.060217343E-01 3.146880325E-02
 1.131045139E+00 -2.903251596E-01 3.146946445E-02
 1.091135878E+00 -1.818363148E-01 3.146542107E-02
 1.091262311E+00 -1.889810969E-01 3.147455765E-02
 1.072883948E+00 -1.588910107E-01 3.145507749E-02
 1.078441479E+00 -1.641419380E-01 3.145581683E-02
 1.084147064E+00 -1.700167470E-01 3.145722183E-02
 1.090430261E+00 -1.757346334E-01 3.145721161E-02
 1.063823124E+00 -1.541542005E-01 3.146038919E-02
 1.068063237E+00 -1.543507008E-01 3.145393008E-02
 1.060266113E+00 -1.499999695E-01 3.146329715E-02
 1.114181599E+00 -2.304082882E-01 3.148032727E-02
 1.114037424E+00 -2.413492803E-01 3.148586403E-02
 1.098930151E+00 -1.964931587E-01 3.147301139E-02
 1.106975712E+00 -2.043837306E-01 3.147047676E-02
 1.115243697E+00 -2.126141319E-01 3.146734080E-02
 1.114944265E+00 -2.212591583E-01 3.147391078E-02
 1.126693315E+00 -2.634854340E-01 3.147467805E-02
 1.125597492E+00 -2.524283254E-01 3.147400470E-02
 1.130015860E+00 -3.219338899E-01 3.146868153E-02