TITLE     = "fluent21.1.0  build-id: 10179"
VARIABLES = "X"
"Y"
"Velocity Magnitude"
DATASETAUXDATA CFDA.ID1="Pressure"
DATASETAUXDATA CFDA.ID2="Density"
DATASETAUXDATA Common.DensityVar="12"
DATASETAUXDATA Common.PressureVar="3"
DATASETAUXDATA Common.UVar="5"
DATASETAUXDATA Common.VectorVarsAreVelocity="TRUE"
DATASETAUXDATA Common.ViscosityVar="14"
DATASETAUXDATA Common.VVar="7"
ZONE T="sur_out"
 STRANDID=1, SOLUTIONTIME=141.75
 Nodes=14307, Elements=14184, ZONETYPE=FEQuadrilateral
 DATAPACKING=POINT
 FACENEIGHBORCONNECTIONS=1051
 FACENEIGHBORMODE=GLOBALONETOMANY
 DT=(DOUBLE DOUBLE DOUBLE )
 9.063741353E-01 -1.533338230E-01 3.563894466E-02
 9.085549316E-01 -1.499999695E-01 3.563179471E-02
 9.045625610E-01 -1.499999695E-01 3.551936727E-02
 9.113484739E-01 -1.542039737E-01 3.582735033E-02
 9.125473633E-01 -1.499999695E-01 3.576951993E-02
 9.158872510E-01 -1.545530096E-01 3.596203140E-02
 9.165397949E-01 -1.499999695E-01 3.589666993E-02
 9.202813887E-01 -1.546971369E-01 3.607123727E-02
 9.205321655E-01 -1.499999695E-01 3.600239839E-02
 9.153732023E-01 -1.592847587E-01 3.609184182E-02
 9.105860375E-01 -1.589034663E-01 3.594925189E-02
 9.200174968E-01 -1.594914330E-01 3.620236499E-02
 9.246753578E-01 -1.547218036E-01 3.616001386E-02
 9.245245361E-01 -1.499999695E-01 3.609104546E-02
 9.196650126E-01 -1.643875110E-01 3.631459780E-02
 9.149934157E-01 -1.641505016E-01 3.621249616E-02
 9.247319267E-01 -1.595607292E-01 3.628835250E-02
 9.291435651E-01 -1.546135919E-01 3.622954845E-02
 9.285169678E-01 -1.499999695E-01 3.616253485E-02
 9.189842873E-01 -1.693168603E-01 3.640074937E-02
 9.151122900E-01 -1.691581358E-01 3.631888603E-02
 9.246431338E-01 -1.645467493E-01 3.639286999E-02
 9.295641308E-01 -1.594556999E-01 3.635149579E-02
 9.337923174E-01 -1.542675551E-01 3.627588948E-02
 9.325093994E-01 -1.499999695E-01 3.621480084E-02
 9.167942972E-01 -1.739748461E-01 3.642672159E-02
 9.243358033E-01 -1.697051442E-01 3.646960188E-02
 9.298087871E-01 -1.644979192E-01 3.644640830E-02
 9.345369575E-01 -1.591321581E-01 3.638763293E-02
 9.365017700E-01 -1.499999695E-01 3.623755108E-02
 9.389513414E-01 -1.533187119E-01 3.629248581E-02
 9.236803391E-01 -1.752162271E-01 3.650881142E-02
 9.300185846E-01 -1.697216903E-01 3.650900311E-02
 9.349695572E-01 -1.642417479E-01 3.647101901E-02
 9.397825131E-01 -1.585509680E-01 3.639793369E-02
 9.404941406E-01 -1.499999695E-01 3.625832305E-02
 9.303635284E-01 -1.753017109E-01 3.652709414E-02
 9.232161545E-01 -1.818583126E-01 3.649903717E-02
 9.163281153E-01 -1.813740034E-01 3.646088581E-02
 9.355252294E-01 -1.693559242E-01 3.651671518E-02
 9.399633246E-01 -1.639624724E-01 3.646651538E-02
 9.441600496E-01 -1.537686594E-01 3.631594715E-02
 9.456402443E-01 -1.577784576E-01 3.637658558E-02
 9.444865723E-01 -1.499999695E-01 3.627960993E-02
 9.301936990E-01 -1.820288982E-01 3.648957841E-02
 9.375023765E-01 -1.742006914E-01 3.650381525E-02
 9.226345849E-01 -1.887680603E-01 3.642447597E-02
 9.156516954E-01 -1.882958119E-01 3.641930572E-02
 9.395692581E-01 -1.692421958E-01 3.650045011E-02
 9.454886739E-01 -1.637986387E-01 3.643584120E-02
 9.475435346E-01 -1.539670303E-01 3.630975004E-02
 9.484789429E-01 -1.499999695E-01 3.627617399E-02
 9.298106929E-01 -1.890515631E-01 3.638465841E-02
 9.373303169E-01 -1.818673785E-01 3.643691486E-02
 9.146945579E-01 -1.951420841E-01 3.629644850E-02
 9.218328787E-01 -1.958039722E-01 3.627281851E-02
 9.452493199E-01 -1.694314229E-01 3.645344800E-02
 9.511950355E-01 -1.587907318E-01 3.634696007E-02
 9.510647509E-01 -1.640042044E-01 3.637801588E-02
 9.518771220E-01 -1.543079604E-01 3.628974878E-02
 9.524713745E-01 -1.499999695E-01 3.625546085E-02
 9.292868377E-01 -1.962430231E-01 3.620776917E-02
 9.370960359E-01 -1.891317932E-01 3.630576946E-02
 9.447235495E-01 -1.752362476E-01 3.642604497E-02
 9.445091721E-01 -1.820998357E-01 3.634023702E-02
 9.207163849E-01 -2.030311773E-01 3.606905545E-02
 9.148725468E-01 -2.026967259E-01 3.610087339E-02
 9.511988423E-01 -1.694421555E-01 3.637109007E-02
 9.561771036E-01 -1.590482617E-01 3.628332058E-02
 9.563496295E-01 -1.639608538E-01 3.629679900E-02
 9.562857932E-01 -1.544540392E-01 3.624256631E-02
 9.564637451E-01 -1.499999695E-01 3.621495139E-02
 9.368725146E-01 -1.964014959E-01 3.611116843E-02
 9.286355164E-01 -2.037008615E-01 3.597496236E-02
 9.443383146E-01 -1.892000339E-01 3.619097666E-02
 9.516133455E-01 -1.752047448E-01 3.631332820E-02
 9.516099804E-01 -1.820850048E-01 3.620303731E-02
 9.175400052E-01 -2.099185105E-01 3.581906852E-02
 9.568465485E-01 -1.691022408E-01 3.627779436E-02
 9.608675286E-01 -1.589544656E-01 3.619809775E-02
 9.612956248E-01 -1.636571894E-01 3.619326942E-02
 9.606200050E-01 -1.544334409E-01 3.617530213E-02
 9.604561768E-01 -1.499999695E-01 3.615592197E-02
 9.442580699E-01 -1.963791091E-01 3.599022551E-02
 9.368548601E-01 -2.038575609E-01 3.586392910E-02
 9.276997878E-01 -2.116763707E-01 3.568822418E-02
 9.514582129E-01 -1.892047088E-01 3.604172333E-02
 9.588880322E-01 -1.740253153E-01 3.616367401E-02
 9.588240880E-01 -1.818227195E-01 3.603104313E-02
 9.609441486E-01 -1.689537052E-01 3.616970726E-02
 9.653773338E-01 -1.586410441E-01 3.610587868E-02
 9.670170424E-01 -1.627240439E-01 3.605008976E-02
 9.648728507E-01 -1.542952404E-01 3.609291474E-02
 9.644485474E-01 -1.499999695E-01 3.607986451E-02
 9.446877757E-01 -2.035377877E-01 3.576149818E-02
 9.511387018E-01 -1.963991800E-01 3.584044488E-02
 9.372382573E-01 -2.118070106E-01 3.556967578E-02
 9.273936275E-01 -2.212738868E-01 3.535331067E-02
 9.173436780E-01 -2.209147683E-01 3.542052049E-02
 9.587182113E-01 -1.891619236E-01 3.585958199E-02
 9.662120305E-01 -1.750431663E-01 3.594706070E-02
 9.660752234E-01 -1.820083639E-01 3.582300522E-02
 9.667444453E-01 -1.690038490E-01 3.601638281E-02
 9.687604493E-01 -1.585520757E-01 3.600538624E-02
 9.690536032E-01 -1.540762192E-01 3.599233508E-02
 9.684409790E-01 -1.499999695E-01 3.598584398E-02
 9.473418218E-01 -2.103881614E-01 3.544890936E-02
 9.503205897E-01 -2.035624704E-01 3.562968606E-02
 9.585223694E-01 -1.964824224E-01 3.565524944E-02
 9.370974519E-01 -2.213380127E-01 3.524594430E-02
 9.274657950E-01 -2.311744584E-01 3.501591685E-02
 9.174098815E-01 -2.312835999E-01 3.506094014E-02
 9.660488459E-01 -1.891667801E-01 3.564902540E-02
 9.731355162E-01 -1.751248668E-01 3.572580217E-02
 9.732086682E-01 -1.819903500E-01 3.558835910E-02
 9.728042098E-01 -1.692841454E-01 3.582391493E-02
 9.729120411E-01 -1.637297756E-01 3.586980934E-02
 9.736054537E-01 -1.587291759E-01 3.587139522E-02
 9.741509171E-01 -1.534289073E-01 3.584789617E-02
 9.724333496E-01 -1.499999695E-01 3.588442121E-02
 9.470720462E-01 -2.211245157E-01 3.510399360E-02
 9.581385170E-01 -2.039606401E-01 3.543371181E-02
 9.660989304E-01 -1.964433305E-01 3.544521457E-02
 9.367641620E-01 -2.311902646E-01 3.492900179E-02
 9.283813001E-01 -2.409853805E-01 3.471979237E-02
 9.179457012E-01 -2.416575019E-01 3.473189478E-02
 9.732910748E-01 -1.890776735E-01 3.541959604E-02
 9.803246555E-01 -1.741424713E-01 3.548063342E-02
 9.803328513E-01 -1.817290196E-01 3.533787288E-02
 9.784331753E-01 -1.692470078E-01 3.564119896E-02
 9.782331320E-01 -1.641461778E-01 3.569103828E-02
 9.786128642E-01 -1.591705864E-01 3.570661100E-02
 9.792477509E-01 -1.543140108E-01 3.568772442E-02
 9.764257813E-01 -1.499999695E-01 3.578881831E-02
 9.573904399E-01 -2.119090223E-01 3.519234212E-02
 9.467274024E-01 -2.313271992E-01 3.479949377E-02
 9.571384466E-01 -2.214621281E-01 3.491883918E-02
 9.663389475E-01 -2.039076741E-01 3.521789924E-02
 9.734896398E-01 -1.962497895E-01 3.522778164E-02
 9.358775141E-01 -2.409695196E-01 3.465617687E-02
 9.322361904E-01 -2.501400422E-01 3.442303177E-02
 9.191904432E-01 -2.524483661E-01 3.442513022E-02
 9.804112004E-01 -1.889173528E-01 3.517537050E-02
 9.873459249E-01 -1.752232714E-01 3.518864153E-02
 9.873888338E-01 -1.818531253E-01 3.507040502E-02
 9.823758098E-01 -1.693881911E-01 3.547049827E-02
 9.829874433E-01 -1.644041921E-01 3.550867423E-02
 9.833790799E-01 -1.594618640E-01 3.553031028E-02
 9.804181519E-01 -1.499999695E-01 3.567021699E-02
 9.838183274E-01 -1.546364899E-01 3.552698497E-02
 9.669599122E-01 -2.118425983E-01 3.496964751E-02
 9.461642621E-01 -2.415763608E-01 3.452462448E-02
 9.570313596E-01 -2.314700704E-01 3.463624846E-02
 9.671102830E-01 -2.213833227E-01 3.470919509E-02
 9.741710821E-01 -2.034136964E-01 3.502836061E-02
 9.804011012E-01 -1.960898447E-01 3.499976994E-02
 9.068370381E-01 -2.419266309E-01 3.473293401E-02
 9.067628360E-01 -2.530357910E-01 3.442109050E-02
 9.198820597E-01 -2.649852497E-01 3.413350716E-02
 9.327691378E-01 -2.641116002E-01 3.409948429E-02
 9.876159369E-01 -1.887726030E-01 3.491614101E-02
 9.939136069E-01 -1.751529411E-01 3.492237213E-02
 9.942586497E-01 -1.816650765E-01 3.479655046E-02
 9.877585564E-01 -1.697317691E-01 3.526187191E-02
 9.879718604E-01 -1.645903207E-01 3.531106772E-02
 9.881076958E-01 -1.596093971E-01 3.534473687E-02
 9.844105835E-01 -1.499999695E-01 3.552010101E-02
 9.882419429E-01 -1.547528553E-01 3.535786125E-02
 9.770372359E-01 -2.102161902E-01 3.474177325E-02
 9.450411483E-01 -2.522147691E-01 3.426592929E-02
 9.570537168E-01 -2.418094098E-01 3.437143586E-02
 9.673297280E-01 -2.313318819E-01 3.445048661E-02
 9.770854882E-01 -2.209457359E-01 3.448445762E-02
 9.798368819E-01 -2.032983154E-01 3.483399857E-02
 9.878709144E-01 -1.959099152E-01 3.474868569E-02
 9.067203562E-01 -2.653684258E-01 3.413019511E-02
 9.447286606E-01 -2.644611246E-01 3.401105765E-02
 9.343255005E-01 -2.768840028E-01 3.384979235E-02
 9.208962641E-01 -2.780353609E-01 3.386377396E-02
 9.947876259E-01 -1.883931451E-01 3.464748926E-02
 1.000690555E+00 -1.739601030E-01 3.464543551E-02
 1.000926159E+00 -1.812086260E-01 3.453084622E-02
 9.933389181E-01 -1.697106541E-01 3.502512984E-02
 9.930365016E-01 -1.645875971E-01 3.509875592E-02
 9.928402608E-01 -1.596098277E-01 3.514789553E-02
 9.884029541E-01 -1.499999695E-01 3.536011695E-02
 9.926387885E-01 -1.547523025E-01 3.517827126E-02
 9.571221407E-01 -2.527076542E-01 3.412041051E-02
 9.679851611E-01 -2.415025012E-01 3.420128676E-02
 9.773058574E-01 -2.310127290E-01 3.425385066E-02
 9.871328151E-01 -2.115806049E-01 3.441883649E-02
 9.869016203E-01 -2.211811315E-01 3.423290943E-02
 9.877571420E-01 -2.034852459E-01 3.458390758E-02
 9.957147516E-01 -1.952966430E-01 3.447919111E-02
 9.067031130E-01 -2.785026077E-01 3.386492201E-02
 9.572339406E-01 -2.647169730E-01 3.388301532E-02
 9.439883844E-01 -2.768074932E-01 3.378736878E-02
 9.397110436E-01 -2.885719396E-01 3.360370328E-02
 9.227243225E-01 -2.917815427E-01 3.361847651E-02
 1.001551095E+00 -1.878025098E-01 3.440910027E-02
 9.986329747E-01 -1.693362215E-01 3.481470689E-02
 1.007491478E+00 -1.748834593E-01 3.433210212E-02
 1.007192820E+00 -1.813851911E-01 3.426161141E-02
 9.979870857E-01 -1.644108945E-01 3.488614732E-02
 9.975700752E-01 -1.594697491E-01 3.494271496E-02
 9.923953857E-01 -1.499999695E-01 3.518987040E-02
 9.970696896E-01 -1.546364409E-01 3.498806252E-02
 9.692933714E-01 -2.520998592E-01 3.396181878E-02
 9.783001551E-01 -2.407695002E-01 3.404550235E-02
 9.866085367E-01 -2.310306763E-01 3.403998723E-02
 9.968483057E-01 -2.114502816E-01 3.413102782E-02
 9.968185359E-01 -2.211843737E-01 3.396077729E-02
 9.962019609E-01 -2.031574062E-01 3.430561587E-02
 1.004003505E+00 -1.937188692E-01 3.419611845E-02
 9.067015748E-01 -2.926002558E-01 3.362083254E-02
 8.925123049E-01 -2.780349790E-01 3.383684966E-02
 8.935580071E-01 -2.649807093E-01 3.410064782E-02
 9.699907934E-01 -2.643649974E-01 3.373614434E-02
 9.572165011E-01 -2.773098890E-01 3.366484855E-02
 9.407412899E-01 -3.067220843E-01 3.334659796E-02
 9.236165758E-01 -3.079155978E-01 3.339142668E-02
 1.006470294E+00 -1.878372613E-01 3.418728672E-02
 1.002488555E+00 -1.692192670E-01 3.462025852E-02
 1.014157245E+00 -1.748517639E-01 3.403909040E-02
 1.013860520E+00 -1.815634688E-01 3.397268893E-02
 1.007913779E+00 -1.693151555E-01 3.438332303E-02
 1.002689366E+00 -1.642182297E-01 3.467001950E-02
 1.002364226E+00 -1.592009916E-01 3.472450163E-02
 9.963877563E-01 -1.499999695E-01 3.500898404E-02
 1.001666064E+00 -1.543141615E-01 3.478328124E-02
 9.821512810E-01 -2.498188581E-01 3.378746743E-02
 9.857583208E-01 -2.407439126E-01 3.387687956E-02
 9.965617633E-01 -2.312002400E-01 3.379876850E-02
 1.007272098E+00 -2.098788531E-01 3.382528862E-02
 1.007023092E+00 -2.209161968E-01 3.367771416E-02
 1.004499131E+00 -2.023923531E-01 3.405341996E-02
 9.067097124E-01 -3.083706348E-01 3.339840858E-02
 8.906812866E-01 -2.917799313E-01 3.359645884E-02
 8.790728965E-01 -2.768838417E-01 3.379859916E-02
 8.806486945E-01 -2.641027523E-01 3.403670651E-02
 9.826148072E-01 -2.635783643E-01 3.356947660E-02
 9.709297194E-01 -2.770095879E-01 3.352413973E-02
 9.567757205E-01 -2.906645749E-01 3.345953350E-02
 9.243357852E-01 -3.248018454E-01 3.319045289E-02
 9.419928547E-01 -3.239108556E-01 3.314633610E-02
 9.576728538E-01 -3.064869275E-01 3.325811441E-02
 1.013112649E+00 -1.883809612E-01 3.392143568E-02
 1.013771822E+00 -1.691265416E-01 3.411123391E-02
 1.021468092E+00 -1.737549512E-01 3.371642859E-02
 1.020947098E+00 -1.815627078E-01 3.367045368E-02
 1.007889739E+00 -1.640053539E-01 3.443285943E-02
 1.007503466E+00 -1.587769358E-01 3.448830259E-02
 1.000380188E+00 -1.499999695E-01 3.481570237E-02
 1.006827689E+00 -1.534067646E-01 3.454191002E-02
 9.960096374E-01 -2.413572621E-01 3.365288249E-02
 1.006899339E+00 -2.312336484E-01 3.353908446E-02
 1.017452126E+00 -2.118270622E-01 3.347242609E-02
 1.017115003E+00 -2.213667716E-01 3.338453580E-02
 1.010537838E+00 -2.028083718E-01 3.381300855E-02
 1.011786483E+00 -1.952493254E-01 3.387283806E-02
 9.067249671E-01 -3.251146642E-01 3.320379291E-02
 8.898032533E-01 -3.079100332E-01 3.337701678E-02
 8.736865310E-01 -2.885695734E-01 3.355510869E-02
 9.944390389E-01 -2.639962913E-01 3.337466058E-02
 9.948606783E-01 -2.519014778E-01 3.351833786E-02
 9.839669064E-01 -2.760570244E-01 3.339006729E-02
 9.725871000E-01 -2.902282876E-01 3.332558782E-02
 9.594856224E-01 -3.227741688E-01 3.307066959E-02
 9.434661810E-01 -3.413816075E-01 3.297932423E-02
 9.250363948E-01 -3.423088245E-01 3.302204650E-02
 9.737675106E-01 -3.057289841E-01 3.314417908E-02
 1.020312615E+00 -1.888121733E-01 3.362548368E-02
 1.019569441E+00 -1.686170447E-01 3.385966033E-02
 1.013419875E+00 -1.636679744E-01 3.417460111E-02
 1.028728477E+00 -1.752319206E-01 3.337843076E-02
 1.028139050E+00 -1.820969622E-01 3.336322428E-02
 1.012899502E+00 -1.584624384E-01 3.423532626E-02
 1.004372559E+00 -1.499999695E-01 3.463888128E-02
 1.012206376E+00 -1.539245205E-01 3.427908233E-02
 1.006892388E+00 -2.415815950E-01 3.340635584E-02
 1.017205542E+00 -2.312355109E-01 3.327335752E-02
 1.026820200E+00 -2.123498845E-01 3.316996310E-02
 1.026816694E+00 -2.214929710E-01 3.309664503E-02
 1.018613808E+00 -2.037115989E-01 3.353015353E-02
 1.019495427E+00 -1.960691637E-01 3.357873460E-02
 9.067443124E-01 -3.425829471E-01 3.303805869E-02
 8.891142460E-01 -3.247925433E-01 3.318752057E-02
 8.726743515E-01 -3.067092743E-01 3.331976175E-02
 1.006909666E+00 -2.524179407E-01 3.327909970E-02
 1.006889704E+00 -2.643276282E-01 3.315552966E-02
 9.934625401E-01 -2.760862675E-01 3.323954801E-02
 9.888897497E-01 -2.874654172E-01 3.317265800E-02
 9.624079187E-01 -3.395033110E-01 3.290905080E-02
 9.759392371E-01 -3.211722543E-01 3.298858843E-02
 9.444411152E-01 -3.597867272E-01 3.284098057E-02
 9.256142291E-01 -3.604728859E-01 3.288351460E-02
 9.889059610E-01 -3.049446257E-01 3.300571367E-02
 1.027681045E+00 -1.891904668E-01 3.332755851E-02
 1.023938197E+00 -1.685113190E-01 3.363057039E-02
 1.019085204E+00 -1.630263163E-01 3.391260907E-02
 1.035479929E+00 -1.757470189E-01 3.307855088E-02
 1.035189890E+00 -1.823696089E-01 3.306154782E-02
 1.029818721E+00 -1.693054744E-01 3.336765142E-02
 1.018436000E+00 -1.574394115E-01 3.396324292E-02
 1.008364990E+00 -1.499999695E-01 3.448074137E-02
 1.016718391E+00 -1.538039619E-01 3.407152344E-02
 1.012357361E+00 -1.499999695E-01 3.429099736E-02
 1.017811475E+00 -2.413044832E-01 3.315481516E-02
 1.027078813E+00 -2.310351562E-01 3.301624361E-02
 1.026984468E+00 -2.041441943E-01 3.323243589E-02
 1.036061047E+00 -2.119493435E-01 3.287746315E-02
 1.036308844E+00 -2.212337423E-01 3.281657124E-02
 1.027275139E+00 -1.964907914E-01 3.328411465E-02
 9.067655482E-01 -3.606977544E-01 3.290102886E-02
 8.884516377E-01 -3.422963867E-01 3.302809046E-02
 8.714539094E-01 -3.238906114E-01 3.314052647E-02
 1.019079774E+00 -2.518174668E-01 3.303506667E-02
 1.019695309E+00 -2.640126327E-01 3.292540134E-02
 1.006568766E+00 -2.767817507E-01 3.304087468E-02
 9.826511967E-01 -3.352695152E-01 3.281538819E-02
 9.640355210E-01 -3.585531410E-01 3.277376457E-02
 9.879115907E-01 -3.208320950E-01 3.288385914E-02
 9.446452900E-01 -3.787246193E-01 3.273021343E-02
 9.262119695E-01 -3.791015272E-01 3.277115241E-02
 1.005069293E+00 -3.057074201E-01 3.283104429E-02
 1.005526241E+00 -2.900108809E-01 3.293656411E-02
 1.034990972E+00 -1.893434817E-01 3.303557358E-02
 1.024888044E+00 -1.623260025E-01 3.362835028E-02
 1.035867906E+00 -1.697907632E-01 3.308264427E-02
 1.042143948E+00 -1.755737398E-01 3.278873093E-02
 1.042153350E+00 -1.822870006E-01 3.276988478E-02
 1.030737879E+00 -1.636732847E-01 3.333889333E-02
 1.023587639E+00 -1.580366065E-01 3.371675461E-02
 1.019862928E+00 -1.538203832E-01 3.389562617E-02
 1.016349792E+00 -1.499999695E-01 3.408530421E-02
 1.028093704E+00 -2.405739224E-01 3.293149520E-02
 1.036277261E+00 -2.308367923E-01 3.276624789E-02
 1.035242738E+00 -2.040331018E-01 3.294434538E-02
 1.045877857E+00 -2.101843784E-01 3.256491410E-02
 1.046103683E+00 -2.206594954E-01 3.253373644E-02
 1.034947869E+00 -1.965592114E-01 3.299841608E-02
 9.067857807E-01 -3.793345869E-01 3.278925660E-02
 8.879157122E-01 -3.604570803E-01 3.289673161E-02
 8.700191805E-01 -3.413556752E-01 3.299214357E-02
 1.031952759E+00 -2.495068194E-01 3.277104832E-02
 1.032438745E+00 -2.631898499E-01 3.269284370E-02
 1.020415262E+00 -2.766127875E-01 3.281929948E-02
 9.843315031E-01 -3.566799881E-01 3.267642269E-02
 9.649483986E-01 -3.781852835E-01 3.266485823E-02
 1.004192579E+00 -3.218260145E-01 3.273237386E-02
 9.429487128E-01 -3.977789729E-01 3.264483352E-02
 9.277622974E-01 -3.978029262E-01 3.268061959E-02
 1.021597073E+00 -2.899476318E-01 3.271883651E-02
 1.021659273E+00 -3.058968806E-01 3.263399642E-02
 1.042145902E+00 -1.892670184E-01 3.275439397E-02
 1.036390991E+00 -1.642355829E-01 3.307014924E-02
 1.041791684E+00 -1.698544498E-01 3.280960031E-02
 1.049160449E+00 -1.744134297E-01 3.248100277E-02
 1.049140680E+00 -1.819405581E-01 3.248409344E-02
 1.027073125E+00 -1.583287164E-01 3.352277057E-02
 1.031848296E+00 -1.587806037E-01 3.329881922E-02
 1.023938519E+00 -1.540039568E-01 3.370594169E-02
 1.020342163E+00 -1.499999695E-01 3.389254960E-02
 1.035531769E+00 -2.404492309E-01 3.272860835E-02
 1.046259791E+00 -2.306221716E-01 3.250500818E-02
 1.042988800E+00 -2.034855522E-01 3.269426226E-02
 1.055973690E+00 -2.206014222E-01 3.224602574E-02
 1.055680260E+00 -2.114715847E-01 3.224970497E-02
 1.042291016E+00 -1.963813606E-01 3.273048566E-02
 9.068004778E-01 -3.984457815E-01 3.269318150E-02
 8.873592113E-01 -3.790769056E-01 3.279084140E-02
 8.690841358E-01 -3.597593576E-01 3.287012972E-02
 1.044344285E+00 -2.634791002E-01 3.246101890E-02
 1.044669175E+00 -2.514827719E-01 3.248316614E-02
 1.033798499E+00 -2.756601935E-01 3.261788083E-02
 1.002665734E+00 -3.381599278E-01 3.264939935E-02
 1.003879218E+00 -3.561544556E-01 3.256930110E-02
 9.867281156E-01 -3.766466257E-01 3.257326117E-02
 9.643301983E-01 -3.987488889E-01 3.257390461E-02
 1.021131553E+00 -3.224610278E-01 3.256118860E-02
 9.350282856E-01 -4.157873574E-01 3.254572500E-02
 1.038785823E+00 -2.872267166E-01 3.247898878E-02
 1.038829249E+00 -3.053801849E-01 3.242588541E-02
 1.049153346E+00 -1.890904333E-01 3.248126235E-02
 1.037091881E+00 -1.589661002E-01 3.304277725E-02
 1.041873980E+00 -1.644796116E-01 3.281219204E-02
 1.047287922E+00 -1.695766075E-01 3.257371590E-02
 1.056042522E+00 -1.754239693E-01 3.218559862E-02
 1.056108855E+00 -1.819876856E-01 3.220392115E-02
 1.027958339E+00 -1.541201145E-01 3.349879208E-02
 1.032490655E+00 -1.541073531E-01 3.327549997E-02
 1.024334595E+00 -1.499999695E-01 3.369561914E-02
 1.045828857E+00 -2.408699519E-01 3.249003775E-02
 1.056886297E+00 -2.301017832E-01 3.222619353E-02
 1.048555493E+00 -2.033559164E-01 3.247673773E-02
 1.056276938E+00 -2.035330467E-01 3.223064001E-02
 1.065241950E+00 -2.201430435E-01 3.199042729E-02
 1.064593588E+00 -2.115532101E-01 3.197577347E-02
 1.049087521E+00 -1.962346501E-01 3.247616792E-02
 9.068077271E-01 -4.187775542E-01 3.256847754E-02
 8.858366386E-01 -3.977729650E-01 3.270698078E-02
 8.689134970E-01 -3.786995827E-01 3.277259203E-02
 1.056744674E+00 -2.636151208E-01 3.222236132E-02
 1.056592794E+00 -2.520383483E-01 3.222967205E-02
 1.043556267E+00 -2.755225941E-01 3.243306224E-02
 1.019946789E+00 -3.393549145E-01 3.250099259E-02
 1.017854444E+00 -3.566881638E-01 3.245678004E-02
 1.010607883E+00 -3.729733136E-01 3.245409840E-02
 9.869848428E-01 -3.987098325E-01 3.248688420E-02
 9.623207044E-01 -4.201913732E-01 3.244560093E-02
 1.038704166E+00 -3.226216081E-01 3.237944989E-02
 1.056166039E+00 -3.057322725E-01 3.221192625E-02
 1.056148025E+00 -2.896229789E-01 3.221606579E-02
 1.056244605E+00 -1.889629742E-01 3.221000980E-02
 1.037840867E+00 -1.534920315E-01 3.300358589E-02
 1.042299371E+00 -1.593207424E-01 3.279157373E-02
 1.047032075E+00 -1.644912176E-01 3.257277173E-02
 1.051187172E+00 -1.695522735E-01 3.237346408E-02
 1.062354506E+00 -1.755390303E-01 3.192162263E-02
 1.063013012E+00 -1.816560238E-01 3.192718186E-02
 1.056565979E+00 -1.697809450E-01 3.215015000E-02
 1.032319336E+00 -1.499999695E-01 3.327348674E-02
 1.028327026E+00 -1.499999695E-01 3.348987070E-02
 1.056878557E+00 -2.409142160E-01 3.222382319E-02
 1.068463140E+00 -2.282225680E-01 3.191619263E-02
 1.056352823E+00 -1.961344273E-01 3.221668996E-02
 1.064509865E+00 -2.031731251E-01 3.195587999E-02
 1.071920496E+00 -2.201667041E-01 3.177754255E-02
 1.072909576E+00 -2.114014950E-01 3.171975081E-02
 9.068182925E-01 -4.449716623E-01 3.228599005E-02
 9.353019866E-01 -4.443859605E-01 3.223179628E-02
 8.785745141E-01 -4.157589450E-01 3.260086501E-02
 8.706354072E-01 -3.977550713E-01 3.269516518E-02
 1.057296869E+00 -2.756371220E-01 3.221269511E-02
 1.068762050E+00 -2.631930255E-01 3.200683106E-02
 1.068113809E+00 -2.520448856E-01 3.199064507E-02
 1.038129227E+00 -3.400674631E-01 3.234287099E-02
 1.036906240E+00 -3.581489277E-01 3.231736413E-02
 1.010056103E+00 -3.981865934E-01 3.238053027E-02
 9.867248712E-01 -4.211767681E-01 3.236032068E-02
 9.630483123E-01 -4.448957992E-01 3.215807455E-02
 1.056685842E+00 -3.224522660E-01 3.219230931E-02
 1.072977162E+00 -3.053723308E-01 3.200225092E-02
 1.072331383E+00 -2.897856007E-01 3.198819359E-02
 1.063356575E+00 -1.886713248E-01 3.193843215E-02
 1.043017987E+00 -1.543594811E-01 3.274466062E-02
 1.036311768E+00 -1.499999695E-01 3.307215118E-02
 1.047235427E+00 -1.594574017E-01 3.255311368E-02
 1.051757336E+00 -1.644485769E-01 3.234794064E-02
 1.068154472E+00 -1.752695380E-01 3.169241769E-02
 1.070240079E+00 -1.804360437E-01 3.163236751E-02
 1.062213277E+00 -1.698100366E-01 3.190366682E-02
 1.056854319E+00 -1.643569901E-01 3.211488885E-02
 1.068243924E+00 -2.405741461E-01 3.195934989E-02
 1.063790127E+00 -1.958260814E-01 3.194843657E-02
 1.073363753E+00 -2.017777103E-01 3.165390588E-02
 1.081062929E+00 -2.208840087E-01 3.154717385E-02
 1.081706943E+00 -2.120873367E-01 3.146697609E-02
 9.362842762E-01 -4.718369234E-01 3.168159272E-02
 9.068322395E-01 -4.721921314E-01 3.172844047E-02
 8.783224290E-01 -4.443622770E-01 3.231869785E-02
 8.492548181E-01 -3.986902284E-01 3.266050212E-02
 8.486096674E-01 -3.781370358E-01 3.273291683E-02
 1.072735630E+00 -2.736733122E-01 3.195050655E-02
 1.077448897E+00 -2.633745018E-01 3.182609963E-02
 1.078862758E+00 -2.523156789E-01 3.176700607E-02
 1.056943285E+00 -3.401021660E-01 3.217701158E-02
 1.034521531E+00 -3.771907295E-01 3.229547700E-02
 1.057020784E+00 -3.585457711E-01 3.216743844E-02
 1.009040160E+00 -4.215816174E-01 3.226340586E-02
 1.033551693E+00 -3.994435251E-01 3.225686456E-02
 9.884289146E-01 -4.441307982E-01 3.210772019E-02
 9.659882411E-01 -4.707156211E-01 3.163171645E-02
 1.074892355E+00 -3.212620958E-01 3.200344814E-02
 1.088510830E+00 -3.046479872E-01 3.182474276E-02
 1.087453778E+00 -2.904109471E-01 3.178541396E-02
 1.070373036E+00 -1.882503855E-01 3.167919806E-02
 1.047653238E+00 -1.546105356E-01 3.251849829E-02
 1.040304199E+00 -1.499999695E-01 3.290313305E-02
 1.044296631E+00 -1.499999695E-01 3.271318595E-02
 1.051986189E+00 -1.594000755E-01 3.232565756E-02
 1.072318328E+00 -1.753084482E-01 3.149946275E-02
 1.067704976E+00 -1.697946297E-01 3.166948379E-02
 1.062245693E+00 -1.641336856E-01 3.187229422E-02
 1.056889980E+00 -1.590769730E-01 3.209467153E-02
 1.080023031E+00 -2.301271631E-01 3.162939956E-02
 1.079505182E+00 -2.410784080E-01 3.170387138E-02
 1.070921499E+00 -1.953245128E-01 3.170762140E-02
 1.082295915E+00 -2.035468869E-01 3.137837756E-02
 1.090514102E+00 -2.125048606E-01 3.121655575E-02
 1.090571953E+00 -2.211275539E-01 3.129396488E-02
 9.068493652E-01 -5.000000000E-01 3.137437253E-02
 9.369863281E-01 -5.000000000E-01 3.133782794E-02
 8.773708194E-01 -4.718239041E-01 3.176569750E-02
 8.505491460E-01 -4.448394396E-01 3.233460440E-02
 8.512703688E-01 -4.201268575E-01 3.256669563E-02
 1.090375854E+00 -2.526822489E-01 3.154521880E-02
 1.089432930E+00 -2.642825773E-01 3.163291965E-02
 1.075882251E+00 -3.392640091E-01 3.201031436E-02
 1.056980474E+00 -3.781590665E-01 3.215559191E-02
 1.077163551E+00 -3.577008366E-01 3.201643472E-02
 1.032671293E+00 -4.224250763E-01 3.214811656E-02
 1.006503840E+00 -4.444077377E-01 3.202272913E-02
 1.056845323E+00 -3.999011951E-01 3.212909318E-02
 9.973718804E-01 -4.660063752E-01 3.163456470E-02
 9.671232910E-01 -5.000000000E-01 3.130776095E-02
 1.094021447E+00 -3.179296618E-01 3.180340201E-02
 1.087838950E+00 -2.763763113E-01 3.171827944E-02
 1.099575997E+00 -3.047890944E-01 3.168605383E-02
 1.101122420E+00 -2.908057603E-01 3.160785134E-02
 1.076961735E+00 -1.885809825E-01 3.143590076E-02
 1.077351505E+00 -1.817013445E-01 3.136303502E-02
 1.052094662E+00 -1.546194404E-01 3.230193447E-02
 1.048288940E+00 -1.499999695E-01 3.249784329E-02
 1.072828757E+00 -1.698274022E-01 3.144674186E-02
 1.078055266E+00 -1.757042555E-01 3.128621402E-02
 1.067648167E+00 -1.642790885E-01 3.163322405E-02
 1.062276148E+00 -1.580890910E-01 3.183487259E-02
 1.056484262E+00 -1.544677862E-01 3.208720247E-02
 1.090874220E+00 -2.412819354E-01 3.145361401E-02
 1.091056486E+00 -2.303079663E-01 3.136745089E-02
 1.076159081E+00 -1.954438740E-01 3.150357756E-02
 1.083379158E+00 -1.960932913E-01 3.128000550E-02
 1.090718748E+00 -2.042267573E-01 3.112654875E-02
 1.098967275E+00 -2.125792856E-01 3.098423987E-02
 1.099560366E+00 -2.208028080E-01 3.106926242E-02
 8.767124023E-01 -5.000000000E-01 3.140565808E-02
 8.476390871E-01 -4.706840117E-01 3.180490610E-02
 1.102293870E+00 -2.527803547E-01 3.132571695E-02
 1.102053525E+00 -2.646382504E-01 3.142665028E-02
 1.094513569E+00 -3.379403972E-01 3.185580785E-02
 1.079402357E+00 -3.769331040E-01 3.201600007E-02
 1.096350741E+00 -3.560319285E-01 3.188643434E-02
 1.056696868E+00 -4.226624725E-01 3.203148973E-02
 1.031174405E+00 -4.459121601E-01 3.187993149E-02
 1.079970897E+00 -3.992816817E-01 3.200601655E-02
 9.972602539E-01 -5.000000000E-01 3.126407342E-02
 1.101731241E+00 -2.771049952E-01 3.152064334E-02
 1.114624554E+00 -3.056877917E-01 3.154897041E-02
 1.115665899E+00 -2.908430829E-01 3.143999475E-02
 1.084155225E+00 -1.820888189E-01 3.111288829E-02
 1.083945277E+00 -1.889346014E-01 3.119004759E-02
 1.052281372E+00 -1.499999695E-01 3.228945347E-02
 1.072949095E+00 -1.642854259E-01 3.139615101E-02
 1.078363207E+00 -1.699232212E-01 3.121873631E-02
 1.084192721E+00 -1.758860831E-01 3.104462020E-02
 1.067711816E+00 -1.589029504E-01 3.158806843E-02
 1.060710127E+00 -1.541776458E-01 3.189273873E-02
 1.056273804E+00 -1.499999695E-01 3.208490754E-02
 1.102670604E+00 -2.286741012E-01 3.108013448E-02
 1.102486858E+00 -2.410218380E-01 3.121323093E-02
 1.091081444E+00 -1.964467637E-01 3.102891491E-02
 1.098911710E+00 -2.044181694E-01 3.088450921E-02
 1.105996854E+00 -2.208338850E-01 3.088886760E-02
 1.106812182E+00 -2.125994726E-01 3.076967557E-02
 8.465754395E-01 -5.000000000E-01 3.144781669E-02
 1.114184171E+00 -2.527327351E-01 3.111993668E-02
 1.114703165E+00 -2.643494146E-01 3.123017761E-02
 1.112614482E+00 -3.210087343E-01 3.164524815E-02
 1.111793350E+00 -3.384534785E-01 3.172421983E-02
 1.103482566E+00 -3.725416309E-01 3.186916467E-02
 1.110249716E+00 -3.559092584E-01 3.178603466E-02
 1.056909751E+00 -4.460836154E-01 3.175999249E-02
 1.080165295E+00 -4.221873902E-01 3.192729104E-02
 1.028545983E+00 -4.706956985E-01 3.143647521E-02
 1.103402438E+00 -3.980775912E-01 3.188989456E-02
 1.027397217E+00 -5.000000000E-01 3.117989941E-02
 1.115833185E+00 -2.765381895E-01 3.133159574E-02
 1.130602838E+00 -3.060217343E-01 3.141206065E-02
 1.131045139E+00 -2.903251596E-01 3.128283472E-02
 1.091135878E+00 -1.818363148E-01 3.085456860E-02
 1.091262311E+00 -1.889810969E-01 3.093227414E-02
 1.072883948E+00 -1.588910107E-01 3.135593511E-02
 1.078441479E+00 -1.641419380E-01 3.115882643E-02
 1.084147064E+00 -1.700167470E-01 3.098132769E-02
 1.090430261E+00 -1.757346334E-01 3.079877790E-02
 1.063823124E+00 -1.541542005E-01 3.172387381E-02
 1.068063237E+00 -1.543507008E-01 3.153783953E-02
 1.060266113E+00 -1.499999695E-01 3.188942545E-02
 1.114181599E+00 -2.304082882E-01 3.084846691E-02
 1.114037424E+00 -2.413492803E-01 3.099136259E-02
 1.098930151E+00 -1.964931587E-01 3.077905591E-02
 1.106975712E+00 -2.043837306E-01 3.064945735E-02
 1.115243697E+00 -2.126141319E-01 3.055575844E-02
 1.114944265E+00 -2.212591583E-01 3.070069821E-02
 1.126693315E+00 -2.634854340E-01 3.105892500E-02
 1.125597492E+00 -2.524283254E-01 3.093667083E-02
 1.130015860E+00 -3.219338899E-01 3.151979863E-02