TITLE     = "fluent21.1.0  build-id: 10179"
VARIABLES = "X"
"Y"
"Velocity Magnitude"
DATASETAUXDATA CFDA.ID1="Pressure"
DATASETAUXDATA CFDA.ID2="Density"
DATASETAUXDATA Common.DensityVar="12"
DATASETAUXDATA Common.PressureVar="3"
DATASETAUXDATA Common.UVar="5"
DATASETAUXDATA Common.VectorVarsAreVelocity="TRUE"
DATASETAUXDATA Common.ViscosityVar="14"
DATASETAUXDATA Common.VVar="7"
ZONE T="sur_out"
 STRANDID=1, SOLUTIONTIME=189
 Nodes=14307, Elements=14184, ZONETYPE=FEQuadrilateral
 DATAPACKING=POINT
 FACENEIGHBORCONNECTIONS=1051
 FACENEIGHBORMODE=GLOBALONETOMANY
 DT=(DOUBLE DOUBLE DOUBLE )
 9.063741353E-01 -1.533338230E-01 3.564328602E-02
 9.085549316E-01 -1.499999695E-01 3.556224569E-02
 9.045625610E-01 -1.499999695E-01 3.566487973E-02
 9.113484739E-01 -1.542039737E-01 3.548316464E-02
 9.125473633E-01 -1.499999695E-01 3.543995119E-02
 9.158872510E-01 -1.545530096E-01 3.531297917E-02
 9.165397949E-01 -1.499999695E-01 3.527804105E-02
 9.202813887E-01 -1.546971369E-01 3.513207656E-02
 9.205321655E-01 -1.499999695E-01 3.510473914E-02
 9.153732023E-01 -1.592847587E-01 3.537586697E-02
 9.105860375E-01 -1.589034663E-01 3.556079057E-02
 9.200174968E-01 -1.594914330E-01 3.518083347E-02
 9.246753578E-01 -1.547218036E-01 3.493770287E-02
 9.245245361E-01 -1.499999695E-01 3.491948677E-02
 9.196650126E-01 -1.643875110E-01 3.521132893E-02
 9.149934157E-01 -1.641505016E-01 3.541365174E-02
 9.247319267E-01 -1.595607292E-01 3.496979990E-02
 9.291435651E-01 -1.546135919E-01 3.472723819E-02
 9.285169678E-01 -1.499999695E-01 3.472036597E-02
 9.189842873E-01 -1.693168603E-01 3.522795704E-02
 9.151122900E-01 -1.691581358E-01 3.541746512E-02
 9.246431338E-01 -1.645467493E-01 3.498868728E-02
 9.295641308E-01 -1.594556999E-01 3.473959517E-02
 9.337923174E-01 -1.542675551E-01 3.449756007E-02
 9.325093994E-01 -1.499999695E-01 3.450639509E-02
 9.167942972E-01 -1.739748461E-01 3.530902625E-02
 9.243358033E-01 -1.697051442E-01 3.499865021E-02
 9.298087871E-01 -1.644979192E-01 3.474233624E-02
 9.345369575E-01 -1.591321581E-01 3.449029820E-02
 9.365017700E-01 -1.499999695E-01 3.430457266E-02
 9.389513414E-01 -1.533187119E-01 3.422040071E-02
 9.236803391E-01 -1.752162271E-01 3.499498550E-02
 9.300185846E-01 -1.697216903E-01 3.472607045E-02
 9.349695572E-01 -1.642417479E-01 3.448861839E-02
 9.397825131E-01 -1.585509680E-01 3.422123584E-02
 9.404941406E-01 -1.499999695E-01 3.413041158E-02
 9.303635284E-01 -1.753017109E-01 3.468707355E-02
 9.232161545E-01 -1.818583126E-01 3.495824890E-02
 9.163281153E-01 -1.813740034E-01 3.525882842E-02
 9.355252294E-01 -1.693559242E-01 3.447227139E-02
 9.399633246E-01 -1.639624724E-01 3.422597514E-02
 9.441600496E-01 -1.537686594E-01 3.395768547E-02
 9.456402443E-01 -1.577784576E-01 3.390545453E-02
 9.444865723E-01 -1.499999695E-01 3.393584812E-02
 9.301936990E-01 -1.820288982E-01 3.463791927E-02
 9.375023765E-01 -1.742006914E-01 3.434364552E-02
 9.226345849E-01 -1.887680603E-01 3.489350597E-02
 9.156516954E-01 -1.882958119E-01 3.519287975E-02
 9.395692581E-01 -1.692421958E-01 3.424039176E-02
 9.454886739E-01 -1.637986387E-01 3.394372356E-02
 9.475435346E-01 -1.539670303E-01 3.375390352E-02
 9.484789429E-01 -1.499999695E-01 3.371884183E-02
 9.298106929E-01 -1.890515631E-01 3.458087107E-02
 9.373303169E-01 -1.818673785E-01 3.430963101E-02
 9.146945579E-01 -1.951420841E-01 3.510439716E-02
 9.218328787E-01 -1.958039722E-01 3.481060646E-02
 9.452493199E-01 -1.694314229E-01 3.396839717E-02
 9.511950355E-01 -1.587907318E-01 3.360919672E-02
 9.510647509E-01 -1.640042044E-01 3.365119049E-02
 9.518771220E-01 -1.543079604E-01 3.353779316E-02
 9.524713745E-01 -1.499999695E-01 3.349809098E-02
 9.292868377E-01 -1.962430231E-01 3.450734710E-02
 9.370960359E-01 -1.891317932E-01 3.426050900E-02
 9.447235495E-01 -1.752362476E-01 3.398382634E-02
 9.445091721E-01 -1.820998357E-01 3.397367523E-02
 9.207163849E-01 -2.030311773E-01 3.471883112E-02
 9.148725468E-01 -2.026967259E-01 3.497021371E-02
 9.511988423E-01 -1.694421555E-01 3.365888285E-02
 9.561771036E-01 -1.590482617E-01 3.334283596E-02
 9.563496295E-01 -1.639608538E-01 3.337176344E-02
 9.562857932E-01 -1.544540392E-01 3.329531496E-02
 9.564637451E-01 -1.499999695E-01 3.326699974E-02
 9.368725146E-01 -1.964014959E-01 3.419421873E-02
 9.286355164E-01 -2.037008615E-01 3.442627888E-02
 9.443383146E-01 -1.892000339E-01 3.393929362E-02
 9.516133455E-01 -1.752047448E-01 3.364630143E-02
 9.516099804E-01 -1.820850048E-01 3.363306521E-02
 9.175400052E-01 -2.099185105E-01 3.470527455E-02
 9.568465485E-01 -1.691022408E-01 3.338042947E-02
 9.608675286E-01 -1.589544656E-01 3.308523069E-02
 9.612956248E-01 -1.636571894E-01 3.310337380E-02
 9.606200050E-01 -1.544334409E-01 3.305612350E-02
 9.604561768E-01 -1.499999695E-01 3.303608418E-02
 9.442580699E-01 -1.963791091E-01 3.389116013E-02
 9.368548601E-01 -2.038575609E-01 3.410797944E-02
 9.276997878E-01 -2.116763707E-01 3.433098124E-02
 9.514582129E-01 -1.892047088E-01 3.362001241E-02
 9.588880322E-01 -1.740253153E-01 3.327837131E-02
 9.588240880E-01 -1.818227195E-01 3.329570205E-02
 9.609441486E-01 -1.689537052E-01 3.313598414E-02
 9.653773338E-01 -1.586410441E-01 3.285020551E-02
 9.670170424E-01 -1.627240439E-01 3.279185376E-02
 9.648728507E-01 -1.542952404E-01 3.282286931E-02
 9.644485474E-01 -1.499999695E-01 3.280581821E-02
 9.446877757E-01 -2.035377877E-01 3.382810755E-02
 9.511387018E-01 -1.963991800E-01 3.359891371E-02
 9.372382573E-01 -2.118070106E-01 3.400301493E-02
 9.273936275E-01 -2.212738868E-01 3.420090530E-02
 9.173436780E-01 -2.209147683E-01 3.450106910E-02
 9.587182113E-01 -1.891619236E-01 3.330038651E-02
 9.662120305E-01 -1.750431663E-01 3.292113574E-02
 9.660752234E-01 -1.820083639E-01 3.296120671E-02
 9.667444453E-01 -1.690038490E-01 3.286104025E-02
 9.687604493E-01 -1.585520757E-01 3.263757226E-02
 9.690536032E-01 -1.540762192E-01 3.258764109E-02
 9.684409790E-01 -1.499999695E-01 3.257166678E-02
 9.473418218E-01 -2.103881614E-01 3.365784331E-02
 9.503205897E-01 -2.035624704E-01 3.358092652E-02
 9.585223694E-01 -1.964824224E-01 3.329827422E-02
 9.370974519E-01 -2.213380127E-01 3.389487658E-02
 9.274657950E-01 -2.311744584E-01 3.404918063E-02
 9.174098815E-01 -2.312835999E-01 3.430530179E-02
 9.660488459E-01 -1.891667801E-01 3.298126854E-02
 9.731355162E-01 -1.751248668E-01 3.259250499E-02
 9.732086682E-01 -1.819903500E-01 3.263113905E-02
 9.728042098E-01 -1.692841454E-01 3.255591196E-02
 9.729120411E-01 -1.637297756E-01 3.249206850E-02
 9.736054537E-01 -1.587291759E-01 3.239960038E-02
 9.741509171E-01 -1.534289073E-01 3.229772719E-02
 9.724333496E-01 -1.499999695E-01 3.235053514E-02
 9.470720462E-01 -2.211245157E-01 3.358699321E-02
 9.581385170E-01 -2.039606401E-01 3.329814379E-02
 9.660989304E-01 -1.964433305E-01 3.299068017E-02
 9.367641620E-01 -2.311902646E-01 3.379078580E-02
 9.283813001E-01 -2.409853805E-01 3.390217809E-02
 9.179457012E-01 -2.416575019E-01 3.411201649E-02
 9.732910748E-01 -1.890776735E-01 3.267030548E-02
 9.803246555E-01 -1.741424713E-01 3.224023747E-02
 9.803328513E-01 -1.817290196E-01 3.231393432E-02
 9.784331753E-01 -1.692470078E-01 3.228698968E-02
 9.782331320E-01 -1.641461778E-01 3.222771193E-02
 9.786128642E-01 -1.591705864E-01 3.214068473E-02
 9.792477509E-01 -1.543140108E-01 3.203103538E-02
 9.764257813E-01 -1.499999695E-01 3.216802663E-02
 9.573904399E-01 -2.119090223E-01 3.329574166E-02
 9.467274024E-01 -2.313271992E-01 3.351749125E-02
 9.571384466E-01 -2.214621281E-01 3.327236674E-02
 9.663389475E-01 -2.039076741E-01 3.298608266E-02
 9.734896398E-01 -1.962497895E-01 3.269775595E-02
 9.358775141E-01 -2.409695196E-01 3.370012118E-02
 9.322361904E-01 -2.501400422E-01 3.368936028E-02
 9.191904432E-01 -2.524483661E-01 3.392443378E-02
 9.804112004E-01 -1.889173528E-01 3.237084315E-02
 9.873459249E-01 -1.752232714E-01 3.192762066E-02
 9.873888338E-01 -1.818531253E-01 3.200954729E-02
 9.823758098E-01 -1.693881911E-01 3.206882775E-02
 9.829874433E-01 -1.644041921E-01 3.198622907E-02
 9.833790799E-01 -1.594618640E-01 3.189535588E-02
 9.804181519E-01 -1.499999695E-01 3.197011454E-02
 9.838183274E-01 -1.546364899E-01 3.179324106E-02
 9.669599122E-01 -2.118425983E-01 3.297045562E-02
 9.461642621E-01 -2.415763608E-01 3.345617225E-02
 9.570313596E-01 -2.314700704E-01 3.323124457E-02
 9.671102830E-01 -2.213833227E-01 3.295908708E-02
 9.741710821E-01 -2.034136964E-01 3.270960220E-02
 9.804011012E-01 -1.960898447E-01 3.242174908E-02
 9.068370381E-01 -2.419266309E-01 3.434224877E-02
 9.067628360E-01 -2.530357910E-01 3.413844825E-02
 9.198820597E-01 -2.649852497E-01 3.374909926E-02
 9.327691378E-01 -2.641116002E-01 3.354446395E-02
 9.876159369E-01 -1.887726030E-01 3.207686673E-02
 9.939136069E-01 -1.751529411E-01 3.163857719E-02
 9.942586497E-01 -1.816650765E-01 3.171418072E-02
 9.877585564E-01 -1.697317691E-01 3.183535410E-02
 9.879718604E-01 -1.645903207E-01 3.174600304E-02
 9.881076958E-01 -1.596093971E-01 3.165737853E-02
 9.844105835E-01 -1.499999695E-01 3.173969132E-02
 9.882419429E-01 -1.547528553E-01 3.156385948E-02
 9.770372359E-01 -2.102161902E-01 3.262296374E-02
 9.450411483E-01 -2.522147691E-01 3.339933826E-02
 9.570537168E-01 -2.418094098E-01 3.318774475E-02
 9.673297280E-01 -2.313318819E-01 3.294740843E-02
 9.770854882E-01 -2.209457359E-01 3.265884391E-02
 9.798368819E-01 -2.032983154E-01 3.247488237E-02
 9.878709144E-01 -1.959099152E-01 3.214110545E-02
 9.067203562E-01 -2.653684258E-01 3.394339470E-02
 9.447286606E-01 -2.644611246E-01 3.332689594E-02
 9.343255005E-01 -2.768840028E-01 3.341691744E-02
 9.208962641E-01 -2.780353609E-01 3.358247533E-02
 9.947876259E-01 -1.883931451E-01 3.178706408E-02
 1.000690555E+00 -1.739601030E-01 3.132321762E-02
 1.000926159E+00 -1.812086260E-01 3.143946115E-02
 9.933389181E-01 -1.697106541E-01 3.157211795E-02
 9.930365016E-01 -1.645875971E-01 3.150053901E-02
 9.928402608E-01 -1.596098277E-01 3.142027141E-02
 9.884029541E-01 -1.499999695E-01 3.151631424E-02
 9.926387885E-01 -1.547523025E-01 3.133714733E-02
 9.571221407E-01 -2.527076542E-01 3.314285805E-02
 9.679851611E-01 -2.415025012E-01 3.292165523E-02
 9.773058574E-01 -2.310127290E-01 3.267997529E-02
 9.871328151E-01 -2.115806049E-01 3.229790266E-02
 9.869016203E-01 -2.211811315E-01 3.237072019E-02
 9.877571420E-01 -2.034852459E-01 3.221534663E-02
 9.957147516E-01 -1.952966430E-01 3.184889532E-02
 9.067031130E-01 -2.785026077E-01 3.375813956E-02
 9.572339406E-01 -2.647169730E-01 3.309639050E-02
 9.439883844E-01 -2.768074932E-01 3.325180733E-02
 9.397110436E-01 -2.885719396E-01 3.324251834E-02
 9.227243225E-01 -2.917815427E-01 3.342682089E-02
 1.001551095E+00 -1.878025098E-01 3.152835258E-02
 9.986329747E-01 -1.693362215E-01 3.133436900E-02
 1.007491478E+00 -1.748834593E-01 3.105290442E-02
 1.007192820E+00 -1.813851911E-01 3.118962963E-02
 9.979870857E-01 -1.644108945E-01 3.126436105E-02
 9.975700752E-01 -1.594697491E-01 3.118501075E-02
 9.923953857E-01 -1.499999695E-01 3.129601562E-02
 9.970696896E-01 -1.546364409E-01 3.111045754E-02
 9.692933714E-01 -2.520998592E-01 3.288824545E-02
 9.783001551E-01 -2.407695002E-01 3.268523300E-02
 9.866085367E-01 -2.310306763E-01 3.243029564E-02
 9.968483057E-01 -2.114502816E-01 3.199880968E-02
 9.968185359E-01 -2.211843737E-01 3.208778390E-02
 9.962019609E-01 -2.031574062E-01 3.191988114E-02
 1.004003505E+00 -1.937188692E-01 3.153076507E-02
 9.067015748E-01 -2.926002558E-01 3.358620087E-02
 8.925123049E-01 -2.780349790E-01 3.391886978E-02
 8.935580071E-01 -2.649807093E-01 3.412500213E-02
 9.699907934E-01 -2.643649974E-01 3.286158122E-02
 9.572165011E-01 -2.773098890E-01 3.305182515E-02
 9.407412899E-01 -3.067220843E-01 3.313180109E-02
 9.236165758E-01 -3.079155978E-01 3.329060656E-02
 1.006470294E+00 -1.878372613E-01 3.132223063E-02
 1.002488555E+00 -1.692192670E-01 3.113609314E-02
 1.014157245E+00 -1.748517639E-01 3.078897699E-02
 1.013860520E+00 -1.815634688E-01 3.093997807E-02
 1.007913779E+00 -1.693151555E-01 3.091934373E-02
 1.002689366E+00 -1.642182297E-01 3.103682038E-02
 1.002364226E+00 -1.592009916E-01 3.094503972E-02
 9.963877563E-01 -1.499999695E-01 3.107623374E-02
 1.001666064E+00 -1.543141615E-01 3.087681341E-02
 9.821512810E-01 -2.498188581E-01 3.261158932E-02
 9.857583208E-01 -2.407439126E-01 3.248583054E-02
 9.965617633E-01 -2.312002400E-01 3.218288767E-02
 1.007272098E+00 -2.098788531E-01 3.167007975E-02
 1.007023092E+00 -2.209161968E-01 3.181765334E-02
 1.004499131E+00 -2.023923531E-01 3.165095333E-02
 9.067097124E-01 -3.083706348E-01 3.342915403E-02
 8.906812866E-01 -2.917799313E-01 3.373129371E-02
 8.790728965E-01 -2.768838417E-01 3.405437206E-02
 8.806486945E-01 -2.641027523E-01 3.427404765E-02
 9.826148072E-01 -2.635783643E-01 3.263605896E-02
 9.709297194E-01 -2.770095879E-01 3.283522391E-02
 9.567757205E-01 -2.906645749E-01 3.300936696E-02
 9.243357852E-01 -3.248018454E-01 3.317190164E-02
 9.419928547E-01 -3.239108556E-01 3.303896935E-02
 9.576728538E-01 -3.064869275E-01 3.295651798E-02
 1.013112649E+00 -1.883809612E-01 3.111311114E-02
 1.013771822E+00 -1.691265416E-01 3.066413603E-02
 1.021468092E+00 -1.737549512E-01 3.047973246E-02
 1.020947098E+00 -1.815627078E-01 3.068883561E-02
 1.007889739E+00 -1.640053539E-01 3.079993083E-02
 1.007503466E+00 -1.587769358E-01 3.069711207E-02
 1.000380188E+00 -1.499999695E-01 3.085275163E-02
 1.006827689E+00 -1.534067646E-01 3.059924612E-02
 9.960096374E-01 -2.413572621E-01 3.227368958E-02
 1.006899339E+00 -2.312336484E-01 3.193764916E-02
 1.017452126E+00 -2.118270622E-01 3.141491929E-02
 1.017115003E+00 -2.213667716E-01 3.157205307E-02
 1.010537838E+00 -2.028083718E-01 3.144301912E-02
 1.011786483E+00 -1.952493254E-01 3.128540110E-02
 9.067249671E-01 -3.251146642E-01 3.328765534E-02
 8.898032533E-01 -3.079100332E-01 3.354971568E-02
 8.736865310E-01 -2.885695734E-01 3.388373881E-02
 9.944390389E-01 -2.639962913E-01 3.242773193E-02
 9.948606783E-01 -2.519014778E-01 3.235945633E-02
 9.839669064E-01 -2.760570244E-01 3.264221046E-02
 9.725871000E-01 -2.902282876E-01 3.280503588E-02
 9.594856224E-01 -3.227741688E-01 3.289351330E-02
 9.434661810E-01 -3.413816075E-01 3.296193595E-02
 9.250363948E-01 -3.423088245E-01 3.307258539E-02
 9.737675106E-01 -3.057289841E-01 3.278115934E-02
 1.020312615E+00 -1.888121733E-01 3.087793099E-02
 1.019569441E+00 -1.686170447E-01 3.041881120E-02
 1.013419875E+00 -1.636679744E-01 3.054638552E-02
 1.028728477E+00 -1.752319206E-01 3.024898970E-02
 1.028139050E+00 -1.820969622E-01 3.045401195E-02
 1.012899502E+00 -1.584624384E-01 3.044388615E-02
 1.004372559E+00 -1.499999695E-01 3.064589084E-02
 1.012206376E+00 -1.539245205E-01 3.035070219E-02
 1.006892388E+00 -2.415815950E-01 3.204328010E-02
 1.017205542E+00 -2.312355109E-01 3.170858151E-02
 1.026820200E+00 -2.123498845E-01 3.118640590E-02
 1.026816694E+00 -2.214929710E-01 3.135092516E-02
 1.018613808E+00 -2.037115989E-01 3.124023779E-02
 1.019495427E+00 -1.960691637E-01 3.106005683E-02
 9.067443124E-01 -3.425829471E-01 3.316748416E-02
 8.891142460E-01 -3.247925433E-01 3.338352957E-02
 8.726743515E-01 -3.067092743E-01 3.364023588E-02
 1.006909666E+00 -2.524179407E-01 3.213852338E-02
 1.006889704E+00 -2.643276282E-01 3.222718982E-02
 9.934625401E-01 -2.760862675E-01 3.248083049E-02
 9.888897497E-01 -2.874654172E-01 3.258736493E-02
 9.624079187E-01 -3.395033110E-01 3.283786695E-02
 9.759392371E-01 -3.211722543E-01 3.275705249E-02
 9.444411152E-01 -3.597867272E-01 3.290200026E-02
 9.256142291E-01 -3.604728859E-01 3.299291551E-02
 9.889059610E-01 -3.049446257E-01 3.261737761E-02
 1.027681045E+00 -1.891904668E-01 3.065036951E-02
 1.023938197E+00 -1.685113190E-01 3.022300199E-02
 1.019085204E+00 -1.630263163E-01 3.029501924E-02
 1.035479929E+00 -1.757470189E-01 3.002950228E-02
 1.035189890E+00 -1.823696089E-01 3.023231787E-02
 1.029818721E+00 -1.693054744E-01 3.003832858E-02
 1.018436000E+00 -1.574394115E-01 3.016425468E-02
 1.008364990E+00 -1.499999695E-01 3.047961982E-02
 1.016718391E+00 -1.538039619E-01 3.014307218E-02
 1.012357361E+00 -1.499999695E-01 3.030119482E-02
 1.017811475E+00 -2.413044832E-01 3.182471901E-02
 1.027078813E+00 -2.310351562E-01 3.150434248E-02
 1.026984468E+00 -2.041441943E-01 3.101535184E-02
 1.036061047E+00 -2.119493435E-01 3.096768951E-02
 1.036308844E+00 -2.212337423E-01 3.114583683E-02
 1.027275139E+00 -1.964907914E-01 3.083707565E-02
 9.067655482E-01 -3.606977544E-01 3.306954236E-02
 8.884516377E-01 -3.422963867E-01 3.324380840E-02
 8.714539094E-01 -3.238906114E-01 3.345364492E-02
 1.019079774E+00 -2.518174668E-01 3.192650027E-02
 1.019695309E+00 -2.640126327E-01 3.203105015E-02
 1.006568766E+00 -2.767817507E-01 3.231189590E-02
 9.826511967E-01 -3.352695152E-01 3.269400508E-02
 9.640355210E-01 -3.585531410E-01 3.279792466E-02
 9.879115907E-01 -3.208320950E-01 3.263810442E-02
 9.446452900E-01 -3.787246193E-01 3.285591546E-02
 9.262119695E-01 -3.791015272E-01 3.292824127E-02
 1.005069293E+00 -3.057074201E-01 3.245911149E-02
 1.005526241E+00 -2.900108809E-01 3.239120879E-02
 1.034990972E+00 -1.893434817E-01 3.043368654E-02
 1.024888044E+00 -1.623260025E-01 3.002619225E-02
 1.035867906E+00 -1.697907632E-01 2.982994803E-02
 1.042143948E+00 -1.755737398E-01 2.980913466E-02
 1.042153350E+00 -1.822870006E-01 3.001431625E-02
 1.030737879E+00 -1.636732847E-01 2.982945564E-02
 1.023587639E+00 -1.580366065E-01 2.995631464E-02
 1.019862928E+00 -1.538203832E-01 2.997987066E-02
 1.016349792E+00 -1.499999695E-01 3.010092169E-02
 1.028093704E+00 -2.405739224E-01 3.163235963E-02
 1.036277261E+00 -2.308367923E-01 3.132691973E-02
 1.035242738E+00 -2.040331018E-01 3.080066674E-02
 1.045877857E+00 -2.101843784E-01 3.071912462E-02
 1.046103683E+00 -2.206594954E-01 3.095773875E-02
 1.034947869E+00 -1.965592114E-01 3.062491374E-02
 9.067857807E-01 -3.793345869E-01 3.298931667E-02
 8.879157122E-01 -3.604570803E-01 3.312933501E-02
 8.700191805E-01 -3.413556752E-01 3.329811160E-02
 1.031952759E+00 -2.495068194E-01 3.169633687E-02
 1.032438745E+00 -2.631898499E-01 3.185736498E-02
 1.020415262E+00 -2.766127875E-01 3.213179456E-02
 9.843315031E-01 -3.566799881E-01 3.268639390E-02
 9.649483986E-01 -3.781852835E-01 3.277110847E-02
 1.004192579E+00 -3.218260145E-01 3.251394405E-02
 9.429487128E-01 -3.977789729E-01 3.281980788E-02
 9.277622974E-01 -3.978029262E-01 3.287459091E-02
 1.021597073E+00 -2.899476318E-01 3.221989868E-02
 1.021659273E+00 -3.058968806E-01 3.230837109E-02
 1.042145902E+00 -1.892670184E-01 3.022914945E-02
 1.036390991E+00 -1.642355829E-01 2.963040723E-02
 1.041791684E+00 -1.698544498E-01 2.962417096E-02
 1.049160449E+00 -1.744134297E-01 2.955091311E-02
 1.049140680E+00 -1.819405581E-01 2.980785434E-02
 1.027073125E+00 -1.583287164E-01 2.979677570E-02
 1.031848296E+00 -1.587806037E-01 2.962719653E-02
 1.023938519E+00 -1.540039568E-01 2.981977008E-02
 1.020342163E+00 -1.499999695E-01 2.992104382E-02
 1.035531769E+00 -2.404492309E-01 3.148976558E-02
 1.046259791E+00 -2.306221716E-01 3.116355950E-02
 1.042988800E+00 -2.034855522E-01 3.060600108E-02
 1.055973690E+00 -2.206014222E-01 3.079485405E-02
 1.055680260E+00 -2.114715847E-01 3.056706546E-02
 1.042291016E+00 -1.963813606E-01 3.043026995E-02
 9.068004778E-01 -3.984457815E-01 3.292073342E-02
 8.873592113E-01 -3.790769056E-01 3.303661267E-02
 8.690841358E-01 -3.597593576E-01 3.316915263E-02
 1.044344285E+00 -2.634791002E-01 3.172184651E-02
 1.044669175E+00 -2.514827719E-01 3.155214035E-02
 1.033798499E+00 -2.756601935E-01 3.197514908E-02
 1.002665734E+00 -3.381599278E-01 3.255838688E-02
 1.003879218E+00 -3.561544556E-01 3.258421341E-02
 9.867281156E-01 -3.766466257E-01 3.267741947E-02
 9.643301983E-01 -3.987488889E-01 3.274655465E-02
 1.021131553E+00 -3.224610278E-01 3.238984499E-02
 9.350282856E-01 -4.157873574E-01 3.277333435E-02
 1.038785823E+00 -2.872267166E-01 3.203933317E-02
 1.038829249E+00 -3.053801849E-01 3.218062049E-02
 1.049153346E+00 -1.890904333E-01 3.003927958E-02
 1.037091881E+00 -1.589661002E-01 2.942674460E-02
 1.041873980E+00 -1.644796116E-01 2.943687364E-02
 1.047287922E+00 -1.695766075E-01 2.943355309E-02
 1.056042522E+00 -1.754239693E-01 2.938439647E-02
 1.056108855E+00 -1.819876856E-01 2.962225506E-02
 1.027958339E+00 -1.541201145E-01 2.964237525E-02
 1.032490655E+00 -1.541073531E-01 2.945416361E-02
 1.024334595E+00 -1.499999695E-01 2.974615997E-02
 1.045828857E+00 -2.408699519E-01 3.136182160E-02
 1.056886297E+00 -2.301017832E-01 3.100803612E-02
 1.048555493E+00 -2.033559164E-01 3.046165342E-02
 1.056276938E+00 -2.035330467E-01 3.032964189E-02
 1.065241950E+00 -2.201430435E-01 3.065391631E-02
 1.064593588E+00 -2.115532101E-01 3.042376959E-02
 1.049087521E+00 -1.962346501E-01 3.025828662E-02
 9.068077271E-01 -4.187775542E-01 3.282229754E-02
 8.858366386E-01 -3.977729650E-01 3.296358750E-02
 8.689134970E-01 -3.786995827E-01 3.306462699E-02
 1.056744674E+00 -2.636151208E-01 3.161259877E-02
 1.056592794E+00 -2.520383483E-01 3.143240854E-02
 1.043556267E+00 -2.755225941E-01 3.186548604E-02
 1.019946789E+00 -3.393549145E-01 3.245524973E-02
 1.017854444E+00 -3.566881638E-01 3.250618192E-02
 1.010607883E+00 -3.729733136E-01 3.257296579E-02
 9.869848428E-01 -3.987098325E-01 3.266635203E-02
 9.623207044E-01 -4.201913732E-01 3.268115260E-02
 1.038704166E+00 -3.226216081E-01 3.228550344E-02
 1.056166039E+00 -3.057322725E-01 3.208581949E-02
 1.056148025E+00 -2.896229789E-01 3.193802647E-02
 1.056244605E+00 -1.889629742E-01 2.986208572E-02
 1.037840867E+00 -1.534920315E-01 2.920933855E-02
 1.042299371E+00 -1.593207424E-01 2.923771651E-02
 1.047032075E+00 -1.644912176E-01 2.925633119E-02
 1.051187172E+00 -1.695522735E-01 2.928876649E-02
 1.062354506E+00 -1.755390303E-01 2.921715755E-02
 1.063013012E+00 -1.816560238E-01 2.944450284E-02
 1.056565979E+00 -1.697809450E-01 2.915087647E-02
 1.032319336E+00 -1.499999695E-01 2.938078933E-02
 1.028327026E+00 -1.499999695E-01 2.956685269E-02
 1.056878557E+00 -2.409142160E-01 3.122409145E-02
 1.068463140E+00 -2.282225680E-01 3.083643087E-02
 1.056352823E+00 -1.961344273E-01 3.009693198E-02
 1.064509865E+00 -2.031731251E-01 3.017481197E-02
 1.071920496E+00 -2.201667041E-01 3.056977447E-02
 1.072909576E+00 -2.114014950E-01 3.031316979E-02
 9.068182925E-01 -4.449716623E-01 3.257610303E-02
 9.353019866E-01 -4.443859605E-01 3.252250923E-02
 8.785745141E-01 -4.157589450E-01 3.287827069E-02
 8.706354072E-01 -3.977550713E-01 3.298189453E-02
 1.057296869E+00 -2.756371220E-01 3.177561020E-02
 1.068762050E+00 -2.631930255E-01 3.151993934E-02
 1.068113809E+00 -2.520448856E-01 3.133948132E-02
 1.038129227E+00 -3.400674631E-01 3.236996626E-02
 1.036906240E+00 -3.581489277E-01 3.243989569E-02
 1.010056103E+00 -3.981865934E-01 3.259113765E-02
 9.867248712E-01 -4.211767681E-01 3.261328843E-02
 9.630483123E-01 -4.448957992E-01 3.246694736E-02
 1.056685842E+00 -3.224522660E-01 3.220428451E-02
 1.072977162E+00 -3.053723308E-01 3.202456033E-02
 1.072331383E+00 -2.897856007E-01 3.187005840E-02
 1.063356575E+00 -1.886713248E-01 2.969005539E-02
 1.043017987E+00 -1.543594811E-01 2.903074959E-02
 1.036311768E+00 -1.499999695E-01 2.919547813E-02
 1.047235427E+00 -1.594574017E-01 2.906130074E-02
 1.051757336E+00 -1.644485769E-01 2.909073379E-02
 1.068154472E+00 -1.752695380E-01 2.905994236E-02
 1.070240079E+00 -1.804360437E-01 2.923492913E-02
 1.062213277E+00 -1.698100366E-01 2.899012009E-02
 1.056854319E+00 -1.643569901E-01 2.892315003E-02
 1.068243924E+00 -2.405741461E-01 3.111513950E-02
 1.063790127E+00 -1.958260814E-01 2.993652792E-02
 1.073363753E+00 -2.017777103E-01 2.999388611E-02
 1.081062929E+00 -2.208840087E-01 3.052545867E-02
 1.081706943E+00 -2.120873367E-01 3.024358182E-02
 9.362842762E-01 -4.718369234E-01 3.195167571E-02
 9.068322395E-01 -4.721921314E-01 3.199093862E-02
 8.783224290E-01 -4.443622770E-01 3.261487769E-02
 8.492548181E-01 -3.986902284E-01 3.297696615E-02
 8.486096674E-01 -3.781370358E-01 3.307095940E-02
 1.072735630E+00 -2.736733122E-01 3.166685838E-02
 1.077448897E+00 -2.633745018E-01 3.147746043E-02
 1.078862758E+00 -2.523156789E-01 3.128502888E-02
 1.056943285E+00 -3.401021660E-01 3.230180646E-02
 1.034521531E+00 -3.771907295E-01 3.249579339E-02
 1.057020784E+00 -3.585457711E-01 3.238138277E-02
 1.009040160E+00 -4.215816174E-01 3.255395277E-02
 1.033551693E+00 -3.994435251E-01 3.252715262E-02
 9.884289146E-01 -4.441307982E-01 3.243685175E-02
 9.659882411E-01 -4.707156211E-01 3.192711890E-02
 1.074892355E+00 -3.212620958E-01 3.214918143E-02
 1.088510830E+00 -3.046479872E-01 3.198997009E-02
 1.087453778E+00 -2.904109471E-01 3.184545671E-02
 1.070373036E+00 -1.882503855E-01 2.953793830E-02
 1.047653238E+00 -1.546105356E-01 2.886175361E-02
 1.040304199E+00 -1.499999695E-01 2.905805648E-02
 1.044296631E+00 -1.499999695E-01 2.892584936E-02
 1.051986189E+00 -1.594000755E-01 2.889111900E-02
 1.072318328E+00 -1.753084482E-01 2.895205296E-02
 1.067704976E+00 -1.697946297E-01 2.884203458E-02
 1.062245693E+00 -1.641336856E-01 2.875524664E-02
 1.056889980E+00 -1.590769730E-01 2.871647002E-02
 1.080023031E+00 -2.301271631E-01 3.079208123E-02
 1.079505182E+00 -2.410784080E-01 3.105062220E-02
 1.070921499E+00 -1.953245128E-01 2.978828440E-02
 1.082295915E+00 -2.035468869E-01 2.994458894E-02
 1.090514102E+00 -2.125048606E-01 3.019393708E-02
 1.090571953E+00 -2.211275539E-01 3.047787901E-02
 9.068493652E-01 -5.000000000E-01 3.158599084E-02
 9.369863281E-01 -5.000000000E-01 3.155585027E-02
 8.773708194E-01 -4.718239041E-01 3.202988985E-02
 8.505491460E-01 -4.448394396E-01 3.263606319E-02
 8.512703688E-01 -4.201268575E-01 3.286856598E-02
 1.090375854E+00 -2.526822489E-01 3.126552612E-02
 1.089432930E+00 -2.642825773E-01 3.147758992E-02
 1.075882251E+00 -3.392640091E-01 3.225678919E-02
 1.056980474E+00 -3.781590665E-01 3.244291031E-02
 1.077163551E+00 -3.577008366E-01 3.234535938E-02
 1.032671293E+00 -4.224250763E-01 3.250033115E-02
 1.006503840E+00 -4.444077377E-01 3.238931147E-02
 1.056845323E+00 -3.999011951E-01 3.247980126E-02
 9.973718804E-01 -4.660063752E-01 3.197993563E-02
 9.671232910E-01 -5.000000000E-01 3.154948692E-02
 1.094021447E+00 -3.179296618E-01 3.211287829E-02
 1.087838950E+00 -2.763763113E-01 3.166856983E-02
 1.099575997E+00 -3.047890944E-01 3.199764816E-02
 1.101122420E+00 -2.908057603E-01 3.185952609E-02
 1.076961735E+00 -1.885809825E-01 2.942806305E-02
 1.077351505E+00 -1.817013445E-01 2.914312097E-02
 1.052094662E+00 -1.546194404E-01 2.869788190E-02
 1.048288940E+00 -1.499999695E-01 2.876139597E-02
 1.072828757E+00 -1.698274022E-01 2.871431387E-02
 1.078055266E+00 -1.757042555E-01 2.886593778E-02
 1.067648167E+00 -1.642790885E-01 2.860552184E-02
 1.062276148E+00 -1.580890910E-01 2.850314311E-02
 1.056484262E+00 -1.544677862E-01 2.853547432E-02
 1.090874220E+00 -2.412819354E-01 3.101846446E-02
 1.091056486E+00 -2.303079663E-01 3.074981839E-02
 1.076159081E+00 -1.954438740E-01 2.969834981E-02
 1.083379158E+00 -1.960932913E-01 2.964193131E-02
 1.090718748E+00 -2.042267573E-01 2.989018717E-02
 1.098967275E+00 -2.125792856E-01 3.015814635E-02
 1.099560366E+00 -2.208028080E-01 3.043250441E-02
 8.767124023E-01 -5.000000000E-01 3.162381796E-02
 8.476390871E-01 -4.706840117E-01 3.207453354E-02
 1.102293870E+00 -2.527803547E-01 3.127630319E-02
 1.102053525E+00 -2.646382504E-01 3.149427710E-02
 1.094513569E+00 -3.379403972E-01 3.224360550E-02
 1.079402357E+00 -3.769331040E-01 3.241202441E-02
 1.096350741E+00 -3.560319285E-01 3.233038813E-02
 1.056696868E+00 -4.226624725E-01 3.246286564E-02
 1.031174405E+00 -4.459121601E-01 3.231814759E-02
 1.079970897E+00 -3.992816817E-01 3.245420987E-02
 9.972602539E-01 -5.000000000E-01 3.154257441E-02
 1.101731241E+00 -2.771049952E-01 3.168742776E-02
 1.114624554E+00 -3.056877917E-01 3.204857683E-02
 1.115665899E+00 -2.908430829E-01 3.190557681E-02
 1.084155225E+00 -1.820888189E-01 2.904406716E-02
 1.083945277E+00 -1.889346014E-01 2.933993820E-02
 1.052281372E+00 -1.499999695E-01 2.860277584E-02
 1.072949095E+00 -1.642854259E-01 2.846549691E-02
 1.078363207E+00 -1.699232212E-01 2.859927280E-02
 1.084192721E+00 -1.758860831E-01 2.876189532E-02
 1.067711816E+00 -1.589029504E-01 2.837335397E-02
 1.060710127E+00 -1.541776458E-01 2.838117461E-02
 1.056273804E+00 -1.499999695E-01 2.844916198E-02
 1.102670604E+00 -2.286741012E-01 3.069477779E-02
 1.102486858E+00 -2.410218380E-01 3.101911349E-02
 1.091081444E+00 -1.964467637E-01 2.957385347E-02
 1.098911710E+00 -2.044181694E-01 2.984722537E-02
 1.105996854E+00 -2.208338850E-01 3.043282456E-02
 1.106812182E+00 -2.125994726E-01 3.014768588E-02
 8.465754395E-01 -5.000000000E-01 3.168011301E-02
 1.114184171E+00 -2.527327351E-01 3.132038034E-02
 1.114703165E+00 -2.643494146E-01 3.153857208E-02
 1.112614482E+00 -3.210087343E-01 3.216709030E-02
 1.111793350E+00 -3.384534785E-01 3.226912129E-02
 1.103482566E+00 -3.725416309E-01 3.240168250E-02
 1.110249716E+00 -3.559092584E-01 3.234637024E-02
 1.056909751E+00 -4.460836154E-01 3.228806879E-02
 1.080165295E+00 -4.221873902E-01 3.244748236E-02
 1.028545983E+00 -4.706956985E-01 3.183368828E-02
 1.103402438E+00 -3.980775912E-01 3.245493450E-02
 1.027397217E+00 -5.000000000E-01 3.149767779E-02
 1.115833185E+00 -2.765381895E-01 3.173287471E-02
 1.130602838E+00 -3.060217343E-01 3.212697784E-02
 1.131045139E+00 -2.903251596E-01 3.198995070E-02
 1.091135878E+00 -1.818363148E-01 2.893940644E-02
 1.091262311E+00 -1.889810969E-01 2.925000187E-02
 1.072883948E+00 -1.588910107E-01 2.823257381E-02
 1.078441479E+00 -1.641419380E-01 2.833544626E-02
 1.084147064E+00 -1.700167470E-01 2.849042263E-02
 1.090430261E+00 -1.757346334E-01 2.865815386E-02
 1.063823124E+00 -1.541542005E-01 2.826514635E-02
 1.068063237E+00 -1.543507008E-01 2.815896781E-02
 1.060266113E+00 -1.499999695E-01 2.830417327E-02
 1.114181599E+00 -2.304082882E-01 3.077904817E-02
 1.114037424E+00 -2.413492803E-01 3.106488560E-02
 1.098930151E+00 -1.964931587E-01 2.951798273E-02
 1.106975712E+00 -2.043837306E-01 2.982202410E-02
 1.115243697E+00 -2.126141319E-01 3.016310768E-02
 1.114944265E+00 -2.212591583E-01 3.048120828E-02
 1.126693315E+00 -2.634854340E-01 3.159345105E-02
 1.125597492E+00 -2.524283254E-01 3.139341818E-02
 1.130015860E+00 -3.219338899E-01 3.223702200E-02