TITLE     = "fluent21.1.0  build-id: 10179"
VARIABLES = "X"
"Y"
"Velocity Magnitude"
DATASETAUXDATA CFDA.ID1="Pressure"
DATASETAUXDATA CFDA.ID2="Density"
DATASETAUXDATA Common.DensityVar="12"
DATASETAUXDATA Common.PressureVar="3"
DATASETAUXDATA Common.UVar="5"
DATASETAUXDATA Common.VectorVarsAreVelocity="TRUE"
DATASETAUXDATA Common.ViscosityVar="14"
DATASETAUXDATA Common.VVar="7"
ZONE T="sur_out"
 STRANDID=1, SOLUTIONTIME=216.5
 Nodes=14307, Elements=14184, ZONETYPE=FEQuadrilateral
 DATAPACKING=POINT
 FACENEIGHBORCONNECTIONS=1051
 FACENEIGHBORMODE=GLOBALONETOMANY
 DT=(DOUBLE DOUBLE DOUBLE )
 9.063741353E-01 -1.533338230E-01 2.810393473E-02
 9.085549316E-01 -1.499999695E-01 2.795240948E-02
 9.045625610E-01 -1.499999695E-01 2.807391126E-02
 9.113484739E-01 -1.542039737E-01 2.796467155E-02
 9.125473633E-01 -1.499999695E-01 2.784281522E-02
 9.158872510E-01 -1.545530096E-01 2.782812189E-02
 9.165397949E-01 -1.499999695E-01 2.770480603E-02
 9.202813887E-01 -1.546971369E-01 2.769741531E-02
 9.205321655E-01 -1.499999695E-01 2.757402186E-02
 9.153732023E-01 -1.592847587E-01 2.807635172E-02
 9.105860375E-01 -1.589034663E-01 2.821238302E-02
 9.200174968E-01 -1.594914330E-01 2.794692197E-02
 9.246753578E-01 -1.547218036E-01 2.757202578E-02
 9.245245361E-01 -1.499999695E-01 2.745039886E-02
 9.196650126E-01 -1.643875110E-01 2.819945239E-02
 9.149934157E-01 -1.641505016E-01 2.832402042E-02
 9.247319267E-01 -1.595607292E-01 2.782105826E-02
 9.291435651E-01 -1.546135919E-01 2.744998723E-02
 9.285169678E-01 -1.499999695E-01 2.733308805E-02
 9.189842873E-01 -1.693168603E-01 2.844646815E-02
 9.151122900E-01 -1.691581358E-01 2.855566094E-02
 9.246431338E-01 -1.645467493E-01 2.808043622E-02
 9.295641308E-01 -1.594556999E-01 2.769462213E-02
 9.337923174E-01 -1.542675551E-01 2.732657282E-02
 9.325093994E-01 -1.499999695E-01 2.721865752E-02
 9.167942972E-01 -1.739748461E-01 2.874795116E-02
 9.243358033E-01 -1.697051442E-01 2.835194219E-02
 9.298087871E-01 -1.644979192E-01 2.795585275E-02
 9.345369575E-01 -1.591321581E-01 2.756587573E-02
 9.365017700E-01 -1.499999695E-01 2.710531149E-02
 9.389513414E-01 -1.533187119E-01 2.717223216E-02
 9.236803391E-01 -1.752162271E-01 2.864502002E-02
 9.300185846E-01 -1.697216903E-01 2.822577385E-02
 9.349695572E-01 -1.642417479E-01 2.783359196E-02
 9.397825131E-01 -1.585509680E-01 2.744473583E-02
 9.404941406E-01 -1.499999695E-01 2.703982557E-02
 9.303635284E-01 -1.753017109E-01 2.851589949E-02
 9.232161545E-01 -1.818583126E-01 2.896200604E-02
 9.163281153E-01 -1.813740034E-01 2.908675331E-02
 9.355252294E-01 -1.693559242E-01 2.809517328E-02
 9.399633246E-01 -1.639624724E-01 2.772720886E-02
 9.441600496E-01 -1.537686594E-01 2.710547503E-02
 9.456402443E-01 -1.577784576E-01 2.731809671E-02
 9.444865723E-01 -1.499999695E-01 2.700291383E-02
 9.301936990E-01 -1.820288982E-01 2.884380080E-02
 9.375023765E-01 -1.742006914E-01 2.833875264E-02
 9.226345849E-01 -1.887680603E-01 2.928305038E-02
 9.156516954E-01 -1.882958119E-01 2.939260378E-02
 9.395692581E-01 -1.692421958E-01 2.801274960E-02
 9.454886739E-01 -1.637986387E-01 2.764967101E-02
 9.475435346E-01 -1.539670303E-01 2.706907198E-02
 9.484789429E-01 -1.499999695E-01 2.696296338E-02
 9.298106929E-01 -1.890515631E-01 2.918499834E-02
 9.373303169E-01 -1.818673785E-01 2.873690429E-02
 9.146945579E-01 -1.951420841E-01 2.968436983E-02
 9.218328787E-01 -1.958039722E-01 2.958986115E-02
 9.452493199E-01 -1.694314229E-01 2.796479015E-02
 9.511950355E-01 -1.587907318E-01 2.731806303E-02
 9.510647509E-01 -1.640042044E-01 2.760259030E-02
 9.518771220E-01 -1.543079604E-01 2.706266703E-02
 9.524713745E-01 -1.499999695E-01 2.694208863E-02
 9.292868377E-01 -1.962430231E-01 2.951121893E-02
 9.370960359E-01 -1.891317932E-01 2.909856535E-02
 9.447235495E-01 -1.752362476E-01 2.829766062E-02
 9.445091721E-01 -1.820998357E-01 2.866141503E-02
 9.207163849E-01 -2.030311773E-01 2.986957420E-02
 9.148725468E-01 -2.026967259E-01 2.994941123E-02
 9.511988423E-01 -1.694421555E-01 2.790653732E-02
 9.561771036E-01 -1.590482617E-01 2.730375208E-02
 9.563496295E-01 -1.639608538E-01 2.757297898E-02
 9.562857932E-01 -1.544540392E-01 2.705248586E-02
 9.564637451E-01 -1.499999695E-01 2.693144809E-02
 9.368725146E-01 -1.964014959E-01 2.943934191E-02
 9.286355164E-01 -2.037008615E-01 2.982251079E-02
 9.443383146E-01 -1.892000339E-01 2.903204781E-02
 9.516133455E-01 -1.752047448E-01 2.823477288E-02
 9.516099804E-01 -1.820850048E-01 2.860441590E-02
 9.175400052E-01 -2.099185105E-01 3.017386928E-02
 9.568465485E-01 -1.691022408E-01 2.784716591E-02
 9.608675286E-01 -1.589544656E-01 2.729493723E-02
 9.612956248E-01 -1.636571894E-01 2.755560955E-02
 9.606200050E-01 -1.544334409E-01 2.705228746E-02
 9.604561768E-01 -1.499999695E-01 2.693423735E-02
 9.442580699E-01 -1.963791091E-01 2.938248831E-02
 9.368548601E-01 -2.038575609E-01 2.976030888E-02
 9.276997878E-01 -2.116763707E-01 3.012951414E-02
 9.514582129E-01 -1.892047088E-01 2.898856457E-02
 9.588880322E-01 -1.740253153E-01 2.814115876E-02
 9.588240880E-01 -1.818227195E-01 2.857159461E-02
 9.609441486E-01 -1.689537052E-01 2.783141910E-02
 9.653773338E-01 -1.586410441E-01 2.728564532E-02
 9.670170424E-01 -1.627240439E-01 2.753429334E-02
 9.648728507E-01 -1.542952404E-01 2.706451609E-02
 9.644485474E-01 -1.499999695E-01 2.695192936E-02
 9.446877757E-01 -2.035377877E-01 2.969533397E-02
 9.511387018E-01 -1.963991800E-01 2.935371664E-02
 9.372382573E-01 -2.118070106E-01 3.007484518E-02
 9.273936275E-01 -2.212738868E-01 3.043459973E-02
 9.173436780E-01 -2.209147683E-01 3.050849779E-02
 9.587182113E-01 -1.891619236E-01 2.897027835E-02
 9.662120305E-01 -1.750431663E-01 2.820723083E-02
 9.660752234E-01 -1.820083639E-01 2.858377523E-02
 9.667444453E-01 -1.690038490E-01 2.787003507E-02
 9.687604493E-01 -1.585520757E-01 2.731170366E-02
 9.690536032E-01 -1.540762192E-01 2.709506552E-02
 9.684409790E-01 -1.499999695E-01 2.698586335E-02
 9.473418218E-01 -2.103881614E-01 2.999479420E-02
 9.503205897E-01 -2.035624704E-01 2.968072136E-02
 9.585223694E-01 -1.964824224E-01 2.935209469E-02
 9.370974519E-01 -2.213380127E-01 3.039234028E-02
 9.274657950E-01 -2.311744584E-01 3.071532199E-02
 9.174098815E-01 -2.312835999E-01 3.078354194E-02
 9.660488459E-01 -1.891667801E-01 2.898006109E-02
 9.731355162E-01 -1.751248668E-01 2.825664925E-02
 9.732086682E-01 -1.819903500E-01 2.862548411E-02
 9.728042098E-01 -1.692841454E-01 2.792954378E-02
 9.729120411E-01 -1.637297756E-01 2.764319398E-02
 9.736054537E-01 -1.587291759E-01 2.739008981E-02
 9.741509171E-01 -1.534289073E-01 2.713878230E-02
 9.724333496E-01 -1.499999695E-01 2.701398125E-02
 9.470720462E-01 -2.211245157E-01 3.038326244E-02
 9.581385170E-01 -2.039606401E-01 2.971489036E-02
 9.660989304E-01 -1.964433305E-01 2.936821068E-02
 9.367641620E-01 -2.311902646E-01 3.068703776E-02
 9.283813001E-01 -2.409853805E-01 3.095111041E-02
 9.179457012E-01 -2.416575019E-01 3.102578800E-02
 9.732910748E-01 -1.890776735E-01 2.901644719E-02
 9.803246555E-01 -1.741424713E-01 2.830052988E-02
 9.803328513E-01 -1.817290196E-01 2.869809935E-02
 9.784331753E-01 -1.692470078E-01 2.798929317E-02
 9.782331320E-01 -1.641461778E-01 2.773752280E-02
 9.786128642E-01 -1.591705864E-01 2.749492637E-02
 9.792477509E-01 -1.543140108E-01 2.728143823E-02
 9.764257813E-01 -1.499999695E-01 2.707430875E-02
 9.573904399E-01 -2.119090223E-01 3.006880152E-02
 9.467274024E-01 -2.313271992E-01 3.069718246E-02
 9.571384466E-01 -2.214621281E-01 3.041965811E-02
 9.663389475E-01 -2.039076741E-01 2.974418638E-02
 9.734896398E-01 -1.962497895E-01 2.940220153E-02
 9.358775141E-01 -2.409695196E-01 3.093189641E-02
 9.322361904E-01 -2.501400422E-01 3.116152469E-02
 9.191904432E-01 -2.524483661E-01 3.124952361E-02
 9.804112004E-01 -1.889173528E-01 2.908345208E-02
 9.873459249E-01 -1.752232714E-01 2.848813277E-02
 9.873888338E-01 -1.818531253E-01 2.881644011E-02
 9.823758098E-01 -1.693881911E-01 2.807757776E-02
 9.829874433E-01 -1.644041921E-01 2.784651458E-02
 9.833790799E-01 -1.594618640E-01 2.761689906E-02
 9.804181519E-01 -1.499999695E-01 2.718469913E-02
 9.838183274E-01 -1.546364899E-01 2.740416087E-02
 9.669599122E-01 -2.118425983E-01 3.011610823E-02
 9.461642621E-01 -2.415763608E-01 3.096593225E-02
 9.570313596E-01 -2.314700704E-01 3.074103787E-02
 9.671102830E-01 -2.213833227E-01 3.048336769E-02
 9.741710821E-01 -2.034136964E-01 2.976044876E-02
 9.804011012E-01 -1.960898447E-01 2.946648781E-02
 9.068370381E-01 -2.419266309E-01 3.111892583E-02
 9.067628360E-01 -2.530357910E-01 3.133716259E-02
 9.198820597E-01 -2.649852497E-01 3.146615555E-02
 9.327691378E-01 -2.641116002E-01 3.142603182E-02
 9.876159369E-01 -1.887726030E-01 2.918461252E-02
 9.939136069E-01 -1.751529411E-01 2.864066100E-02
 9.942586497E-01 -1.816650765E-01 2.895801652E-02
 9.877585564E-01 -1.697317691E-01 2.821656282E-02
 9.879718604E-01 -1.645903207E-01 2.797625162E-02
 9.881076958E-01 -1.596093971E-01 2.774907390E-02
 9.844105835E-01 -1.499999695E-01 2.730254002E-02
 9.882419429E-01 -1.547528553E-01 2.753444481E-02
 9.770372359E-01 -2.102161902E-01 3.013953249E-02
 9.450411483E-01 -2.522147691E-01 3.121026574E-02
 9.570537168E-01 -2.418094098E-01 3.101905786E-02
 9.673297280E-01 -2.313318819E-01 3.081489321E-02
 9.770854882E-01 -2.209457359E-01 3.057641868E-02
 9.798368819E-01 -2.032983154E-01 2.982270953E-02
 9.878709144E-01 -1.959099152E-01 2.956573074E-02
 9.067203562E-01 -2.653684258E-01 3.154184318E-02
 9.447286606E-01 -2.644611246E-01 3.143962641E-02
 9.343255005E-01 -2.768840028E-01 3.162420369E-02
 9.208962641E-01 -2.780353609E-01 3.166648205E-02
 9.947876259E-01 -1.883931451E-01 2.930797862E-02
 1.000690555E+00 -1.739601030E-01 2.879308214E-02
 1.000926159E+00 -1.812086260E-01 2.911869063E-02
 9.933389181E-01 -1.697106541E-01 2.836477579E-02
 9.930365016E-01 -1.645875971E-01 2.812064540E-02
 9.928402608E-01 -1.596098277E-01 2.789368615E-02
 9.884029541E-01 -1.499999695E-01 2.743006747E-02
 9.926387885E-01 -1.547523025E-01 2.767662210E-02
 9.571221407E-01 -2.527076542E-01 3.126873367E-02
 9.679851611E-01 -2.415025012E-01 3.109843713E-02
 9.773058574E-01 -2.310127290E-01 3.091603961E-02
 9.871328151E-01 -2.115806049E-01 3.033805168E-02
 9.869016203E-01 -2.211811315E-01 3.072107291E-02
 9.877571420E-01 -2.034852459E-01 2.995070302E-02
 9.957147516E-01 -1.952966430E-01 2.968332592E-02
 9.067031130E-01 -2.785026077E-01 3.172976006E-02
 9.572339406E-01 -2.647169730E-01 3.149561610E-02
 9.439883844E-01 -2.768074932E-01 3.163334661E-02
 9.397110436E-01 -2.885719396E-01 3.180185966E-02
 9.227243225E-01 -2.917815427E-01 3.184498236E-02
 1.001551095E+00 -1.878025098E-01 2.942634689E-02
 9.986329747E-01 -1.693362215E-01 2.849496698E-02
 1.007491478E+00 -1.748834593E-01 2.907249303E-02
 1.007192820E+00 -1.813851911E-01 2.932532409E-02
 9.979870857E-01 -1.644108945E-01 2.827325628E-02
 9.975700752E-01 -1.594697491E-01 2.805135828E-02
 9.923953857E-01 -1.499999695E-01 2.757005296E-02
 9.970696896E-01 -1.546364409E-01 2.783265293E-02
 9.692933714E-01 -2.520998592E-01 3.135138024E-02
 9.783001551E-01 -2.407695002E-01 3.118170352E-02
 9.866085367E-01 -2.310306763E-01 3.105568708E-02
 9.968483057E-01 -2.114502816E-01 3.050094212E-02
 9.968185359E-01 -2.211843737E-01 3.090035210E-02
 9.962019609E-01 -2.031574062E-01 3.008512833E-02
 1.004003505E+00 -1.937188692E-01 2.980585491E-02
 9.067015748E-01 -2.926002558E-01 3.190010745E-02
 8.925123049E-01 -2.780349790E-01 3.181834210E-02
 8.935580071E-01 -2.649807093E-01 3.163968812E-02
 9.699907934E-01 -2.643649974E-01 3.157931559E-02
 9.572165011E-01 -2.773098890E-01 3.169541932E-02
 9.407412899E-01 -3.067220843E-01 3.200296181E-02
 9.236165758E-01 -3.079155978E-01 3.200876118E-02
 1.006470294E+00 -1.878372613E-01 2.958812361E-02
 1.002488555E+00 -1.692192670E-01 2.864418062E-02
 1.014157245E+00 -1.748517639E-01 2.932874617E-02
 1.013860520E+00 -1.815634688E-01 2.957590528E-02
 1.007913779E+00 -1.693151555E-01 2.885454670E-02
 1.002689366E+00 -1.642182297E-01 2.844312029E-02
 1.002364226E+00 -1.592009916E-01 2.822553349E-02
 9.963877563E-01 -1.499999695E-01 2.772383921E-02
 1.001666064E+00 -1.543141615E-01 2.800287408E-02
 9.821512810E-01 -2.498188581E-01 3.145567424E-02
 9.857583208E-01 -2.407439126E-01 3.130304163E-02
 9.965617633E-01 -2.312002400E-01 3.123900665E-02
 1.007272098E+00 -2.098788531E-01 3.066372520E-02
 1.007023092E+00 -2.209161968E-01 3.111327231E-02
 1.004499131E+00 -2.023923531E-01 3.021228664E-02
 9.067097124E-01 -3.083706348E-01 3.205177399E-02
 8.906812866E-01 -2.917799313E-01 3.198053913E-02
 8.790728965E-01 -2.768838417E-01 3.191148402E-02
 8.806486945E-01 -2.641027523E-01 3.176065740E-02
 9.826148072E-01 -2.635783643E-01 3.169820427E-02
 9.709297194E-01 -2.770095879E-01 3.178095744E-02
 9.567757205E-01 -2.906645749E-01 3.187559673E-02
 9.243357852E-01 -3.248018454E-01 3.215034816E-02
 9.419928547E-01 -3.239108556E-01 3.215174773E-02
 9.576728538E-01 -3.064869275E-01 3.204234682E-02
 1.013112649E+00 -1.883809612E-01 2.982998249E-02
 1.013771822E+00 -1.691265416E-01 2.909529462E-02
 1.021468092E+00 -1.737549512E-01 2.961301560E-02
 1.020947098E+00 -1.815627078E-01 2.986345051E-02
 1.007889739E+00 -1.640053539E-01 2.864487463E-02
 1.007503466E+00 -1.587769358E-01 2.842795360E-02
 1.000380188E+00 -1.499999695E-01 2.789059974E-02
 1.006827689E+00 -1.534067646E-01 2.819555969E-02
 9.960096374E-01 -2.413572621E-01 3.149396471E-02
 1.006899339E+00 -2.312336484E-01 3.145841016E-02
 1.017452126E+00 -2.118270622E-01 3.101411782E-02
 1.017115003E+00 -2.213667716E-01 3.137347188E-02
 1.010537838E+00 -2.028083718E-01 3.040351294E-02
 1.011786483E+00 -1.952493254E-01 3.010283545E-02
 9.067249671E-01 -3.251146642E-01 3.218103680E-02
 8.898032533E-01 -3.079100332E-01 3.212280285E-02
 8.736865310E-01 -2.885695734E-01 3.208742971E-02
 9.944390389E-01 -2.639962913E-01 3.186379308E-02
 9.948606783E-01 -2.519014778E-01 3.169089252E-02
 9.839669064E-01 -2.760570244E-01 3.187714196E-02
 9.725871000E-01 -2.902282876E-01 3.196029877E-02
 9.594856224E-01 -3.227741688E-01 3.218667631E-02
 9.434661810E-01 -3.413816075E-01 3.226931931E-02
 9.250363948E-01 -3.423088245E-01 3.226411379E-02
 9.737675106E-01 -3.057289841E-01 3.211587548E-02
 1.020312615E+00 -1.888121733E-01 3.011190072E-02
 1.019569441E+00 -1.686170447E-01 2.931772233E-02
 1.013419875E+00 -1.636679744E-01 2.887418384E-02
 1.028728477E+00 -1.752319206E-01 3.000117374E-02
 1.028139050E+00 -1.820969622E-01 3.018822745E-02
 1.012899502E+00 -1.584624384E-01 2.865733927E-02
 1.004372559E+00 -1.499999695E-01 2.803258609E-02
 1.012206376E+00 -1.539245205E-01 2.846695621E-02
 1.006892388E+00 -2.415815950E-01 3.171991189E-02
 1.017205542E+00 -2.312355109E-01 3.170434505E-02
 1.026820200E+00 -2.123498845E-01 3.130922664E-02
 1.026816694E+00 -2.214929710E-01 3.165245090E-02
 1.018613808E+00 -2.037115989E-01 3.068163112E-02
 1.019495427E+00 -1.960691637E-01 3.038182005E-02
 9.067443124E-01 -3.425829471E-01 3.228718579E-02
 8.891142460E-01 -3.247925433E-01 3.224051826E-02
 8.726743515E-01 -3.067092743E-01 3.222489861E-02
 1.006909666E+00 -2.524179407E-01 3.191755927E-02
 1.006889704E+00 -2.643276282E-01 3.207093917E-02
 9.934625401E-01 -2.760862675E-01 3.200514515E-02
 9.888897497E-01 -2.874654172E-01 3.207629246E-02
 9.624079187E-01 -3.395033110E-01 3.230423099E-02
 9.759392371E-01 -3.211722543E-01 3.223962516E-02
 9.444411152E-01 -3.597867272E-01 3.236166851E-02
 9.256142291E-01 -3.604728859E-01 3.235376984E-02
 9.889059610E-01 -3.049446257E-01 3.222426331E-02
 1.027681045E+00 -1.891904668E-01 3.041786312E-02
 1.023938197E+00 -1.685113190E-01 2.955224247E-02
 1.019085204E+00 -1.630263163E-01 2.911516882E-02
 1.035479929E+00 -1.757470189E-01 3.034379593E-02
 1.035189890E+00 -1.823696089E-01 3.052567051E-02
 1.029818721E+00 -1.693054744E-01 2.985590168E-02
 1.018436000E+00 -1.574394115E-01 2.889497629E-02
 1.008364990E+00 -1.499999695E-01 2.818319574E-02
 1.016718391E+00 -1.538039619E-01 2.866168238E-02
 1.012357361E+00 -1.499999695E-01 2.838518463E-02
 1.017811475E+00 -2.413044832E-01 3.196600597E-02
 1.027078813E+00 -2.310351562E-01 3.195906193E-02
 1.026984468E+00 -2.041441943E-01 3.097508963E-02
 1.036061047E+00 -2.119493435E-01 3.159503514E-02
 1.036308844E+00 -2.212337423E-01 3.193290548E-02
 1.027275139E+00 -1.964907914E-01 3.067659308E-02
 9.067655482E-01 -3.606977544E-01 3.237147956E-02
 8.884516377E-01 -3.422963867E-01 3.233594285E-02
 8.714539094E-01 -3.238906114E-01 3.232754368E-02
 1.019079774E+00 -2.518174668E-01 3.216508602E-02
 1.019695309E+00 -2.640126327E-01 3.230642055E-02
 1.006568766E+00 -2.767817507E-01 3.219164736E-02
 9.826511967E-01 -3.352695152E-01 3.236942657E-02
 9.640355210E-01 -3.585531410E-01 3.239713426E-02
 9.879115907E-01 -3.208320950E-01 3.232143349E-02
 9.446452900E-01 -3.787246193E-01 3.243165889E-02
 9.262119695E-01 -3.791015272E-01 3.242263020E-02
 1.005069293E+00 -3.057074201E-01 3.237710941E-02
 1.005526241E+00 -2.900108809E-01 3.228959968E-02
 1.034990972E+00 -1.893434817E-01 3.073517537E-02
 1.024888044E+00 -1.623260025E-01 2.938652051E-02
 1.035867906E+00 -1.697907632E-01 3.018515798E-02
 1.042143948E+00 -1.755737398E-01 3.067295459E-02
 1.042153350E+00 -1.822870006E-01 3.085866648E-02
 1.030737879E+00 -1.636732847E-01 2.973461515E-02
 1.023587639E+00 -1.580366065E-01 2.916015208E-02
 1.019862928E+00 -1.538203832E-01 2.884046700E-02
 1.016349792E+00 -1.499999695E-01 2.858908479E-02
 1.028093704E+00 -2.405739224E-01 3.219283275E-02
 1.036277261E+00 -2.308367923E-01 3.222333465E-02
 1.035242738E+00 -2.040331018E-01 3.126465110E-02
 1.045877857E+00 -2.101843784E-01 3.188757045E-02
 1.046103683E+00 -2.206594954E-01 3.223565641E-02
 1.034947869E+00 -1.965592114E-01 3.097734485E-02
 9.067857807E-01 -3.793345869E-01 3.243697229E-02
 8.879157122E-01 -3.604570803E-01 3.241148151E-02
 8.700191805E-01 -3.413556752E-01 3.240906398E-02
 1.031952759E+00 -2.495068194E-01 3.244567668E-02
 1.032438745E+00 -2.631898499E-01 3.256124004E-02
 1.020415262E+00 -2.766127875E-01 3.241415514E-02
 9.843315031E-01 -3.566799881E-01 3.246379751E-02
 9.649483986E-01 -3.781852835E-01 3.246605746E-02
 1.004192579E+00 -3.218260145E-01 3.244859409E-02
 9.429487128E-01 -3.977789729E-01 3.247671084E-02
 9.277622974E-01 -3.978029262E-01 3.246902107E-02
 1.021597073E+00 -2.899476318E-01 3.250245594E-02
 1.021659273E+00 -3.058968806E-01 3.256379293E-02
 1.042145902E+00 -1.892670184E-01 3.105429606E-02
 1.036390991E+00 -1.642355829E-01 3.004549167E-02
 1.041791684E+00 -1.698544498E-01 3.049709897E-02
 1.049160449E+00 -1.744134297E-01 3.100938564E-02
 1.049140680E+00 -1.819405581E-01 3.119518124E-02
 1.027073125E+00 -1.583287164E-01 2.937372347E-02
 1.031848296E+00 -1.587806037E-01 2.963021500E-02
 1.023938519E+00 -1.540039568E-01 2.904742138E-02
 1.020342163E+00 -1.499999695E-01 2.878652527E-02
 1.035531769E+00 -2.404492309E-01 3.241858778E-02
 1.046259791E+00 -2.306221716E-01 3.251854304E-02
 1.042988800E+00 -2.034855522E-01 3.151581847E-02
 1.055973690E+00 -2.206014222E-01 3.256746644E-02
 1.055680260E+00 -2.114715847E-01 3.229857998E-02
 1.042291016E+00 -1.963813606E-01 3.127269108E-02
 9.068004778E-01 -3.984457815E-01 3.248382277E-02
 8.873592113E-01 -3.790769056E-01 3.246953711E-02
 8.690841358E-01 -3.597593576E-01 3.247259997E-02
 1.044344285E+00 -2.634791002E-01 3.282964632E-02
 1.044669175E+00 -2.514827719E-01 3.279119260E-02
 1.033798499E+00 -2.756601935E-01 3.263270081E-02
 1.002665734E+00 -3.381599278E-01 3.250150687E-02
 1.003879218E+00 -3.561544556E-01 3.254907563E-02
 9.867281156E-01 -3.766466257E-01 3.252751516E-02
 9.643301983E-01 -3.987488889E-01 3.251029553E-02
 1.021131553E+00 -3.224610278E-01 3.260385380E-02
 9.350282856E-01 -4.157873574E-01 3.248822502E-02
 1.038785823E+00 -2.872267166E-01 3.275974397E-02
 1.038829249E+00 -3.053801849E-01 3.277200414E-02
 1.049153346E+00 -1.890904333E-01 3.137764503E-02
 1.037091881E+00 -1.589661002E-01 2.991867130E-02
 1.041873980E+00 -1.644796116E-01 3.034341576E-02
 1.047287922E+00 -1.695766075E-01 3.075993625E-02
 1.056042522E+00 -1.754239693E-01 3.139401386E-02
 1.056108855E+00 -1.819876856E-01 3.154090156E-02
 1.027958339E+00 -1.541201145E-01 2.927186212E-02
 1.032490655E+00 -1.541073531E-01 2.951193820E-02
 1.024334595E+00 -1.499999695E-01 2.899487511E-02
 1.045828857E+00 -2.408699519E-01 3.270352550E-02
 1.056886297E+00 -2.301017832E-01 3.283969875E-02
 1.048555493E+00 -2.033559164E-01 3.176696791E-02
 1.056276938E+00 -2.035330467E-01 3.208052439E-02
 1.065241950E+00 -2.201430435E-01 3.286345470E-02
 1.064593588E+00 -2.115532101E-01 3.263594799E-02
 1.049087521E+00 -1.962346501E-01 3.157022141E-02
 9.068077271E-01 -4.187775542E-01 3.249300789E-02
 8.858366386E-01 -3.977729650E-01 3.250909531E-02
 8.689134970E-01 -3.786995827E-01 3.251927471E-02
 1.056744674E+00 -2.636151208E-01 3.311199865E-02
 1.056592794E+00 -2.520383483E-01 3.309987668E-02
 1.043556267E+00 -2.755225941E-01 3.284248326E-02
 1.019946789E+00 -3.393549145E-01 3.263020156E-02
 1.017854444E+00 -3.566881638E-01 3.264399141E-02
 1.010607883E+00 -3.729733136E-01 3.262246273E-02
 9.869848428E-01 -3.987098325E-01 3.256564393E-02
 9.623207044E-01 -4.201913732E-01 3.251425319E-02
 1.038704166E+00 -3.226216081E-01 3.277728001E-02
 1.056166039E+00 -3.057322725E-01 3.299424728E-02
 1.056148025E+00 -2.896229789E-01 3.304228565E-02
 1.056244605E+00 -1.889629742E-01 3.171052692E-02
 1.037840867E+00 -1.534920315E-01 2.978744565E-02
 1.042299371E+00 -1.593207424E-01 3.020870416E-02
 1.047032075E+00 -1.644912176E-01 3.061818382E-02
 1.051187172E+00 -1.695522735E-01 3.099654937E-02
 1.062354506E+00 -1.755390303E-01 3.171750479E-02
 1.063013012E+00 -1.816560238E-01 3.187977099E-02
 1.056565979E+00 -1.697809450E-01 3.127214801E-02
 1.032319336E+00 -1.499999695E-01 2.944387228E-02
 1.028327026E+00 -1.499999695E-01 2.921458406E-02
 1.056878557E+00 -2.409142160E-01 3.302315086E-02
 1.068463140E+00 -2.282225680E-01 3.318340193E-02
 1.056352823E+00 -1.961344273E-01 3.188863630E-02
 1.064509865E+00 -2.031731251E-01 3.241858085E-02
 1.071920496E+00 -2.201667041E-01 3.313710396E-02
 1.072909576E+00 -2.114014950E-01 3.296186323E-02
 9.068182925E-01 -4.449716623E-01 3.235414166E-02
 9.353019866E-01 -4.443859605E-01 3.235656272E-02
 8.785745141E-01 -4.157589450E-01 3.252895732E-02
 8.706354072E-01 -3.977550713E-01 3.254836108E-02
 1.057296869E+00 -2.756371220E-01 3.309147293E-02
 1.068762050E+00 -2.631930255E-01 3.337610277E-02
 1.068113809E+00 -2.520448856E-01 3.339541104E-02
 1.038129227E+00 -3.400674631E-01 3.277365590E-02
 1.036906240E+00 -3.581489277E-01 3.276144731E-02
 1.010056103E+00 -3.981865934E-01 3.264193339E-02
 9.867248712E-01 -4.211767681E-01 3.255861591E-02
 9.630483123E-01 -4.448957992E-01 3.238579831E-02
 1.056685842E+00 -3.224522660E-01 3.296346787E-02
 1.072977162E+00 -3.053723308E-01 3.321353331E-02
 1.072331383E+00 -2.897856007E-01 3.329367394E-02
 1.063356575E+00 -1.886713248E-01 3.204479407E-02
 1.043017987E+00 -1.543594811E-01 3.010171257E-02
 1.036311768E+00 -1.499999695E-01 2.964484927E-02
 1.047235427E+00 -1.594574017E-01 3.048311658E-02
 1.051757336E+00 -1.644485769E-01 3.087725516E-02
 1.068154472E+00 -1.752695380E-01 3.198620183E-02
 1.070240079E+00 -1.804360437E-01 3.221861578E-02
 1.062213277E+00 -1.698100366E-01 3.156855633E-02
 1.056854319E+00 -1.643569901E-01 3.114328194E-02
 1.068243924E+00 -2.405741461E-01 3.334809120E-02
 1.063790127E+00 -1.958260814E-01 3.221909739E-02
 1.073363753E+00 -2.017777103E-01 3.277296769E-02
 1.081062929E+00 -2.208840087E-01 3.345941719E-02
 1.081706943E+00 -2.120873367E-01 3.330594857E-02
 9.362842762E-01 -4.718369234E-01 3.188650488E-02
 9.068322395E-01 -4.721921314E-01 3.187477753E-02
 8.783224290E-01 -4.443622770E-01 3.237626284E-02
 8.492548181E-01 -3.986902284E-01 3.260676350E-02
 8.486096674E-01 -3.781370358E-01 3.258890951E-02
 1.072735630E+00 -2.736733122E-01 3.340416587E-02
 1.077448897E+00 -2.633745018E-01 3.359512247E-02
 1.078862758E+00 -2.523156789E-01 3.367234248E-02
 1.056943285E+00 -3.401021660E-01 3.293038378E-02
 1.034521531E+00 -3.771907295E-01 3.274738552E-02
 1.057020784E+00 -3.585457711E-01 3.289617510E-02
 1.009040160E+00 -4.215816174E-01 3.261576468E-02
 1.033551693E+00 -3.994435251E-01 3.273398237E-02
 9.884289146E-01 -4.441307982E-01 3.244021970E-02
 9.659882411E-01 -4.707156211E-01 3.193417973E-02
 1.074892355E+00 -3.212620958E-01 3.315360029E-02
 1.088510830E+00 -3.046479872E-01 3.340503105E-02
 1.087453778E+00 -2.904109471E-01 3.351435606E-02
 1.070373036E+00 -1.882503855E-01 3.236798283E-02
 1.047653238E+00 -1.546105356E-01 3.035912759E-02
 1.040304199E+00 -1.499999695E-01 2.983141527E-02
 1.044296631E+00 -1.499999695E-01 3.005917832E-02
 1.051986189E+00 -1.594000755E-01 3.074084533E-02
 1.072318328E+00 -1.753084482E-01 3.222354218E-02
 1.067704976E+00 -1.697946297E-01 3.184731664E-02
 1.062245693E+00 -1.641336856E-01 3.142041102E-02
 1.056889980E+00 -1.590769730E-01 3.099224391E-02
 1.080023031E+00 -2.301271631E-01 3.359310204E-02
 1.079505182E+00 -2.410784080E-01 3.367471780E-02
 1.070921499E+00 -1.953245128E-01 3.251219618E-02
 1.082295915E+00 -2.035468869E-01 3.317988015E-02
 1.090514102E+00 -2.125048606E-01 3.364559452E-02
 1.090571953E+00 -2.211275539E-01 3.379369738E-02
 9.068493652E-01 -5.000000000E-01 3.152526366E-02
 9.369863281E-01 -5.000000000E-01 3.154243327E-02
 8.773708194E-01 -4.718239041E-01 3.189132146E-02
 8.505491460E-01 -4.448394396E-01 3.242384489E-02
 8.512703688E-01 -4.201268575E-01 3.258226883E-02
 1.090375854E+00 -2.526822489E-01 3.394144610E-02
 1.089432930E+00 -2.642825773E-01 3.381654436E-02
 1.075882251E+00 -3.392640091E-01 3.309147375E-02
 1.056980474E+00 -3.781590665E-01 3.286572761E-02
 1.077163551E+00 -3.577008366E-01 3.303253400E-02
 1.032671293E+00 -4.224250763E-01 3.268343141E-02
 1.006503840E+00 -4.444077377E-01 3.247614328E-02
 1.056845323E+00 -3.999011951E-01 3.283316192E-02
 9.973718804E-01 -4.660063752E-01 3.207273380E-02
 9.671232910E-01 -5.000000000E-01 3.159933746E-02
 1.094021447E+00 -3.179296618E-01 3.336301334E-02
 1.087838950E+00 -2.763763113E-01 3.365960231E-02
 1.099575997E+00 -3.047890944E-01 3.354541276E-02
 1.101122420E+00 -2.908057603E-01 3.369870165E-02
 1.076961735E+00 -1.885809825E-01 3.268581509E-02
 1.077351505E+00 -1.817013445E-01 3.258959363E-02
 1.052094662E+00 -1.546194404E-01 3.060007581E-02
 1.048288940E+00 -1.499999695E-01 3.030110408E-02
 1.072828757E+00 -1.698274022E-01 3.211167015E-02
 1.078055266E+00 -1.757042555E-01 3.249675392E-02
 1.067648167E+00 -1.642790885E-01 3.170070939E-02
 1.062276148E+00 -1.580890910E-01 3.125107359E-02
 1.056484262E+00 -1.544677862E-01 3.083095181E-02
 1.090874220E+00 -2.412819354E-01 3.398809239E-02
 1.091056486E+00 -2.303079663E-01 3.393001732E-02
 1.076159081E+00 -1.954438740E-01 3.278185897E-02
 1.083379158E+00 -1.960932913E-01 3.309304826E-02
 1.090718748E+00 -2.042267573E-01 3.352382496E-02
 1.098967275E+00 -2.125792856E-01 3.394691510E-02
 1.099560366E+00 -2.208028080E-01 3.406793469E-02
 8.767124023E-01 -5.000000000E-01 3.153863957E-02
 8.476390871E-01 -4.706840117E-01 3.194341185E-02
 1.102293870E+00 -2.527803547E-01 3.419845754E-02
 1.102053525E+00 -2.646382504E-01 3.404995140E-02
 1.094513569E+00 -3.379403972E-01 3.323888448E-02
 1.079402357E+00 -3.769331040E-01 3.298529279E-02
 1.096350741E+00 -3.560319285E-01 3.315533444E-02
 1.056696868E+00 -4.226624725E-01 3.276210658E-02
 1.031174405E+00 -4.459121601E-01 3.250651132E-02
 1.079970897E+00 -3.992816817E-01 3.293323208E-02
 9.972602539E-01 -5.000000000E-01 3.166526488E-02
 1.101731241E+00 -2.771049952E-01 3.387385668E-02
 1.114624554E+00 -3.056877917E-01 3.366557379E-02
 1.115665899E+00 -2.908430829E-01 3.386217221E-02
 1.084155225E+00 -1.820888189E-01 3.290780772E-02
 1.083945277E+00 -1.889346014E-01 3.300845937E-02
 1.052281372E+00 -1.499999695E-01 3.053028374E-02
 1.072949095E+00 -1.642854259E-01 3.197162451E-02
 1.078363207E+00 -1.699232212E-01 3.238135047E-02
 1.084192721E+00 -1.758860831E-01 3.279078428E-02
 1.067711816E+00 -1.589029504E-01 3.155900050E-02
 1.060710127E+00 -1.541776458E-01 3.102950325E-02
 1.056273804E+00 -1.499999695E-01 3.075125371E-02
 1.102670604E+00 -2.286741012E-01 3.425618666E-02
 1.102486858E+00 -2.410218380E-01 3.427731300E-02
 1.091081444E+00 -1.964467637E-01 3.342475408E-02
 1.098911710E+00 -2.044181694E-01 3.383713421E-02
 1.105996854E+00 -2.208338850E-01 3.429526548E-02
 1.106812182E+00 -2.125994726E-01 3.421610033E-02
 8.465754395E-01 -5.000000000E-01 3.159211091E-02
 1.114184171E+00 -2.527327351E-01 3.442584418E-02
 1.114703165E+00 -2.643494146E-01 3.425820235E-02
 1.112614482E+00 -3.210087343E-01 3.349685968E-02
 1.111793350E+00 -3.384534785E-01 3.335499579E-02
 1.103482566E+00 -3.725416309E-01 3.311920335E-02
 1.110249716E+00 -3.559092584E-01 3.324368915E-02
 1.056909751E+00 -4.460836154E-01 3.257422748E-02
 1.080165295E+00 -4.221873902E-01 3.284293676E-02
 1.028545983E+00 -4.706956985E-01 3.203395786E-02
 1.103402438E+00 -3.980775912E-01 3.302523333E-02
 1.027397217E+00 -5.000000000E-01 3.169443065E-02
 1.115833185E+00 -2.765381895E-01 3.406704735E-02
 1.130602838E+00 -3.060217343E-01 3.378101385E-02
 1.131045139E+00 -2.903251596E-01 3.400076769E-02
 1.091135878E+00 -1.818363148E-01 3.321080980E-02
 1.091262311E+00 -1.889810969E-01 3.332830553E-02
 1.072883948E+00 -1.588910107E-01 3.181428314E-02
 1.078441479E+00 -1.641419380E-01 3.223616945E-02
 1.084147064E+00 -1.700167470E-01 3.265656500E-02
 1.090430261E+00 -1.757346334E-01 3.306985938E-02
 1.063823124E+00 -1.541542005E-01 3.121401074E-02
 1.068063237E+00 -1.543507008E-01 3.142908411E-02
 1.060266113E+00 -1.499999695E-01 3.095854096E-02
 1.114181599E+00 -2.304082882E-01 3.456793525E-02
 1.114037424E+00 -2.413492803E-01 3.453630732E-02
 1.098930151E+00 -1.964931587E-01 3.373851083E-02
 1.106975712E+00 -2.043837306E-01 3.412542956E-02
 1.115243697E+00 -2.126141319E-01 3.447234866E-02
 1.114944265E+00 -2.212591583E-01 3.453720593E-02
 1.126693315E+00 -2.634854340E-01 3.443374776E-02
 1.125597492E+00 -2.524283254E-01 3.461146884E-02
 1.130015860E+00 -3.219338899E-01 3.359896167E-02