TITLE     = "fluent21.1.0  build-id: 10179"
VARIABLES = "X"
"Y"
"Velocity Magnitude"
DATASETAUXDATA CFDA.ID1="Pressure"
DATASETAUXDATA CFDA.ID2="Density"
DATASETAUXDATA Common.DensityVar="12"
DATASETAUXDATA Common.PressureVar="3"
DATASETAUXDATA Common.UVar="5"
DATASETAUXDATA Common.VectorVarsAreVelocity="TRUE"
DATASETAUXDATA Common.ViscosityVar="14"
DATASETAUXDATA Common.VVar="7"
ZONE T="sur_out"
 STRANDID=1, SOLUTIONTIME=312.25
 Nodes=3645, Elements=3561, ZONETYPE=FEQuadrilateral
 DATAPACKING=POINT
 FACENEIGHBORCONNECTIONS=420
 FACENEIGHBORMODE=GLOBALONETOMANY
 DT=(DOUBLE DOUBLE DOUBLE )
 9.800000000E-01 -1.499999695E-01 2.717895103E-02
 9.848922573E-01 -1.592536950E-01 2.749944553E-02
 9.716137399E-01 -1.610950442E-01 2.759825743E-02
 9.700000000E-01 -1.499999695E-01 2.728093836E-02
 9.900000000E-01 -1.499999695E-01 2.723006129E-02
 9.844187159E-01 -1.737998713E-01 2.828929065E-02
 9.710235029E-01 -1.735375376E-01 2.824472174E-02
 9.983364284E-01 -1.613115469E-01 2.775013761E-02
 1.000000000E+00 -1.499999695E-01 2.745357513E-02
 9.983397345E-01 -1.742551693E-01 2.841712081E-02
 9.664596712E-01 -1.855372630E-01 2.896854308E-02
 9.833260674E-01 -1.880699545E-01 2.907479858E-02
 1.010051393E+00 -1.616764781E-01 2.800576026E-02
 1.010000000E+00 -1.499999695E-01 2.772530951E-02
 1.011199641E+00 -1.737185131E-01 2.858514775E-02
 9.993782330E-01 -1.881456019E-01 2.919745606E-02
 9.828825642E-01 -2.046390800E-01 2.985511310E-02
 9.668813886E-01 -2.041200589E-01 2.981343449E-02
 1.020000000E+00 -1.499999695E-01 2.807618453E-02
 1.020622692E+00 -1.616086685E-01 2.833890224E-02
 1.016173878E+00 -1.853463946E-01 2.935563140E-02
 1.020233559E+00 -1.735960104E-01 2.885777760E-02
 9.996054517E-01 -2.048024578E-01 3.000950469E-02
 9.815895196E-01 -2.213614293E-01 3.049245480E-02
 9.685570950E-01 -2.213401947E-01 3.043176188E-02
 1.030000000E+00 -1.499999695E-01 2.850168855E-02
 1.032169937E+00 -1.610900711E-01 2.876214137E-02
 1.016744298E+00 -2.040925117E-01 3.026379629E-02
 1.032912106E+00 -1.736653216E-01 2.929481711E-02
 9.992910245E-01 -2.221047175E-01 3.071078560E-02
 9.756273949E-01 -2.373617250E-01 3.096022517E-02
 1.040000000E+00 -1.499999695E-01 2.889464133E-02
 1.045114628E+00 -1.590086361E-01 2.927705635E-02
 1.033265806E+00 -1.870865293E-01 2.991033289E-02
 1.017416959E+00 -2.218971282E-01 3.100366547E-02
 1.033662296E+00 -2.040728278E-01 3.064274331E-02
 1.045937816E+00 -1.727914685E-01 2.975290201E-02
 9.985327983E-01 -2.402789198E-01 3.123856278E-02
 1.050000000E+00 -1.499999695E-01 2.930497687E-02
 1.050233938E+00 -1.850747144E-01 3.045283178E-02
 1.034993406E+00 -2.210159044E-01 3.131701752E-02
 1.018567410E+00 -2.401695756E-01 3.154840739E-02
 1.049529382E+00 -2.038224278E-01 3.113713506E-02
 1.055472723E+00 -1.733672214E-01 3.026527227E-02
 1.057437524E+00 -1.610852910E-01 2.997224751E-02
 1.000627150E+00 -2.613049857E-01 3.163292624E-02
 9.773085229E-01 -2.622297408E-01 3.148433312E-02
 1.060000000E+00 -1.499999695E-01 2.984188567E-02
 1.041074334E+00 -2.369678404E-01 3.195391491E-02
 1.047781505E+00 -2.210136085E-01 3.170939642E-02
 1.017155969E+00 -2.611881674E-01 3.188249837E-02
 1.066926723E+00 -1.882063995E-01 3.126271241E-02
 1.066331260E+00 -2.048507278E-01 3.174709639E-02
 1.069137140E+00 -1.618931851E-01 3.057344280E-02
 1.068281615E+00 -1.745174118E-01 3.089623280E-02
 1.009533852E+00 -2.811661627E-01 3.201602845E-02
 9.804534319E-01 -2.863888876E-01 3.184741028E-02
 1.070000000E+00 -1.499999695E-01 3.041602705E-02
 1.039866733E+00 -2.617011538E-01 3.227084577E-02
 1.065528897E+00 -2.222482613E-01 3.225902237E-02
 1.082807145E+00 -1.881893719E-01 3.195167040E-02
 1.083243592E+00 -2.048443897E-01 3.239827816E-02
 1.080805141E+00 -1.618902319E-01 3.116157688E-02
 1.081565077E+00 -1.745032500E-01 3.154873270E-02
 1.012356823E+00 -3.115213046E-01 3.224828638E-02
 9.831312867E-01 -3.144958131E-01 3.211514305E-02
 1.080000000E+00 -1.499999695E-01 3.096844389E-02
 1.064082293E+00 -2.407146395E-01 3.260713265E-02
 1.064088385E+00 -2.627646382E-01 3.276127869E-02
 1.037075888E+00 -2.854274682E-01 3.239391044E-02
 1.083864031E+00 -2.222033160E-01 3.285673641E-02
 1.099486486E+00 -1.850944388E-01 3.262534737E-02
 1.099910236E+00 -2.038713121E-01 3.301837964E-02
 1.094365329E+00 -1.733720081E-01 3.209136895E-02
 1.092502972E+00 -1.610862215E-01 3.169963118E-02
 1.022841537E+00 -3.375099004E-01 3.245056238E-02
 9.868071138E-01 -3.436345611E-01 3.230569220E-02
 1.033920782E+00 -3.123679350E-01 3.245784411E-02
 1.090000000E+00 -1.499999695E-01 3.148372825E-02
 1.085547599E+00 -2.405231215E-01 3.317315171E-02
 1.087340913E+00 -2.618505698E-01 3.324517749E-02
 1.064981623E+00 -2.863227954E-01 3.279148664E-02
 1.101130245E+00 -2.211136646E-01 3.337135271E-02
 1.115757568E+00 -2.042031502E-01 3.360892106E-02
 1.116444294E+00 -1.871490466E-01 3.336030928E-02
 1.103906780E+00 -1.728041222E-01 3.256457947E-02
 1.104836161E+00 -1.590111686E-01 3.221576292E-02
 1.021183783E+00 -3.760787075E-01 3.253858075E-02
 9.869527790E-01 -3.766223339E-01 3.243638972E-02
 1.063403816E+00 -3.144412140E-01 3.275477041E-02
 1.100000000E+00 -1.499999695E-01 3.188530660E-02
 1.106881150E+00 -2.371360624E-01 3.372690117E-02
 1.104335385E+00 -2.613591635E-01 3.363339334E-02
 1.095341859E+00 -2.823295914E-01 3.328042010E-02
 1.113865562E+00 -2.212439679E-01 3.381680270E-02
 1.116938063E+00 -1.736948971E-01 3.309627702E-02
 1.132815920E+00 -2.043440398E-01 3.415791450E-02
 1.133612890E+00 -1.854573840E-01 3.394546168E-02
 1.117773430E+00 -1.610986654E-01 3.281704513E-02
 1.059939183E+00 -3.439469938E-01 3.271122465E-02
 1.016345184E+00 -4.113899500E-01 3.254409901E-02
 9.867114171E-01 -4.098558494E-01 3.248674186E-02
 1.058659910E+00 -3.782157546E-01 3.269718483E-02
 1.094795505E+00 -3.145426680E-01 3.307640158E-02
 1.110000000E+00 -1.499999695E-01 3.224877918E-02
 1.127756127E+00 -2.637398129E-01 3.397945108E-02
 1.129522491E+00 -2.412843810E-01 3.423696878E-02
 1.131687493E+00 -2.224391680E-01 3.428328365E-02
 1.129638257E+00 -1.736485226E-01 3.355894004E-02
 1.150230418E+00 -2.051162054E-01 3.462467169E-02
 1.150499395E+00 -1.882933044E-01 3.447042325E-02
 1.120000000E+00 -1.499999695E-01 3.268070265E-02
 1.129327418E+00 -1.616266773E-01 3.325397257E-02
 1.094861358E+00 -3.454273222E-01 3.295320051E-02
 1.000655724E+00 -4.453158168E-01 3.228460329E-02
 1.056847931E+00 -4.142106228E-01 3.264598149E-02
 1.096716176E+00 -3.782292088E-01 3.288053891E-02
 1.125255870E+00 -2.875727602E-01 3.363572291E-02
 1.125638385E+00 -3.154065442E-01 3.334978109E-02
 1.151766799E+00 -2.416472456E-01 3.459606996E-02
 1.151917607E+00 -2.644260424E-01 3.427127447E-02
 1.150555499E+00 -2.227815862E-01 3.470219944E-02
 1.138686372E+00 -1.737821869E-01 3.390798743E-02
 1.167095301E+00 -2.049300419E-01 3.495172146E-02
 1.166640853E+00 -1.881764494E-01 3.479607749E-02
 1.151584490E+00 -1.743234836E-01 3.424804687E-02
 1.130000000E+00 -1.499999695E-01 3.308801849E-02
 1.139909851E+00 -1.616993572E-01 3.360839611E-02
 1.128054094E+00 -3.445429921E-01 3.316136436E-02
 1.051963525E+00 -4.537702264E-01 3.229150940E-02
 1.100448762E+00 -4.133041887E-01 3.277726829E-02
 1.133006440E+00 -3.752730060E-01 3.304193483E-02
 1.152286078E+00 -2.886623079E-01 3.386989127E-02
 1.154501610E+00 -3.145968655E-01 3.354179270E-02
 1.175072661E+00 -2.380518194E-01 3.485068465E-02
 1.175872033E+00 -2.634051138E-01 3.441923472E-02
 1.168545595E+00 -2.219078943E-01 3.498293040E-02
 1.165552831E+00 -1.738297688E-01 3.454210470E-02
 1.183028520E+00 -2.044457675E-01 3.511579884E-02
 1.183490904E+00 -1.856101349E-01 3.497815902E-02
 1.151641450E+00 -1.613330053E-01 3.390984888E-02
 1.140000000E+00 -1.499999695E-01 3.342612070E-02
 1.158759274E+00 -3.418150085E-01 3.330983911E-02
 1.100399912E+00 -4.552733900E-01 3.235852623E-02
 1.050000000E+00 -5.000000000E-01 3.198696674E-02
 1.000000000E+00 -5.000000000E-01 3.195400722E-02
 1.147907489E+00 -4.050819153E-01 3.293301242E-02
 1.159348002E+00 -3.732379079E-01 3.314321499E-02
 1.181365030E+00 -3.119792214E-01 3.365756040E-02
 1.177469746E+00 -2.877829475E-01 3.398735523E-02
 1.197733932E+00 -2.414135583E-01 3.481229385E-02
 1.199011059E+00 -2.631488073E-01 3.441030735E-02
 1.181458919E+00 -2.218681297E-01 3.509515402E-02
 1.178923151E+00 -1.735406110E-01 3.472935695E-02
 1.165098254E+00 -1.592588202E-01 3.414477206E-02
 1.200145781E+00 -2.053367669E-01 3.513406240E-02
 1.200628640E+00 -1.882138239E-01 3.506268651E-02
 1.150000000E+00 -1.499999695E-01 3.370805818E-02
 1.193203628E+00 -3.344623711E-01 3.342276224E-02
 1.100000000E+00 -5.000000000E-01 3.201444933E-02
 1.149254346E+00 -4.536970090E-01 3.242279645E-02
 1.197809781E+00 -3.702839722E-01 3.318507679E-02
 1.200285133E+00 -3.110747014E-01 3.366939865E-02
 1.200359926E+00 -2.868726543E-01 3.398892826E-02
 1.199197208E+00 -2.230512058E-01 3.506815013E-02
 1.217555883E+00 -2.413146796E-01 3.467065893E-02
 1.221961020E+00 -2.606383780E-01 3.428616402E-02
 1.188311478E+00 -1.736318395E-01 3.483617460E-02
 1.178337393E+00 -1.610907009E-01 3.442524934E-02
 1.160000000E+00 -1.499999695E-01 3.388904336E-02
 1.201489354E+00 -1.738255933E-01 3.487223441E-02
 1.217755271E+00 -2.056393390E-01 3.501027955E-02
 1.217484387E+00 -1.880378921E-01 3.494712736E-02
 1.150000000E+00 -5.000000000E-01 3.205276512E-02
 1.197626729E+00 -4.091578427E-01 3.296031221E-02
 1.198794652E+00 -4.540558880E-01 3.244176937E-02
 1.227844520E+00 -3.360201221E-01 3.336817937E-02
 1.241121511E+00 -3.633151814E-01 3.316598198E-02
 1.226181157E+00 -3.102102684E-01 3.358362689E-02
 1.224581716E+00 -2.849485600E-01 3.389158071E-02
 1.217397501E+00 -2.235836463E-01 3.492928737E-02
 1.233080811E+00 -2.395787495E-01 3.451346065E-02
 1.246650166E+00 -2.531168366E-01 3.408427371E-02
 1.189377927E+00 -1.615313082E-01 3.454048368E-02
 1.170000000E+00 -1.499999695E-01 3.405698831E-02
 1.180000000E+00 -1.499999695E-01 3.425078409E-02
 1.200929522E+00 -1.613664272E-01 3.456851699E-02
 1.216200337E+00 -1.720115854E-01 3.477192172E-02
 1.235970011E+00 -2.055955020E-01 3.473195273E-02
 1.235382386E+00 -1.862393431E-01 3.466824741E-02
 1.200000000E+00 -5.000000000E-01 3.205828166E-02
 1.246059916E+00 -4.064727843E-01 3.293443555E-02
 1.248329222E+00 -4.530442975E-01 3.241770365E-02
 1.250871786E+00 -3.360926673E-01 3.326388076E-02
 1.251982826E+00 -3.084644819E-01 3.343231268E-02
 1.249714351E+00 -2.817292447E-01 3.369464835E-02
 1.235036384E+00 -2.243047324E-01 3.464701099E-02
 1.253623546E+00 -2.284130968E-01 3.422225551E-02
 1.190000000E+00 -1.499999695E-01 3.436599480E-02
 1.212938254E+00 -1.600298976E-01 3.449554430E-02
 1.199999988E+00 -1.499999762E-01 3.425194686E-02
 1.232889354E+00 -1.661529585E-01 3.440095161E-02
 1.255679771E+00 -2.061657539E-01 3.428828677E-02
 1.255220811E+00 -1.850516130E-01 3.421704020E-02
 1.250000000E+00 -5.000000000E-01 3.203779386E-02
 1.297108723E+00 -3.998765363E-01 3.285789694E-02
 1.298438804E+00 -4.514649641E-01 3.236622514E-02
 1.282918700E+00 -3.666694765E-01 3.302151599E-02
 1.282396201E+00 -3.354743188E-01 3.308976375E-02
 1.275406730E+00 -2.797204147E-01 3.340042985E-02
 1.280962038E+00 -3.048866989E-01 3.320904115E-02
 1.274606118E+00 -2.547848815E-01 3.357738470E-02
 1.276991368E+00 -2.298603804E-01 3.367527598E-02
 1.222947223E+00 -1.578115694E-01 3.435327897E-02
 1.211693653E+00 -1.488525539E-01 3.411016168E-02
 1.253417301E+00 -1.657890145E-01 3.397527878E-02
 1.277872707E+00 -2.054215006E-01 3.366719097E-02
 1.276450853E+00 -1.817888279E-01 3.356340315E-02
 1.300000000E+00 -5.000000000E-01 3.199740500E-02
 1.347128132E+00 -4.070835262E-01 3.271682278E-02
 1.348266969E+00 -4.526190837E-01 3.230637027E-02
 1.310998062E+00 -3.676919305E-01 3.288874316E-02
 1.314678295E+00 -3.335791621E-01 3.288123744E-02
 1.296204872E+00 -2.771482370E-01 3.313112205E-02
 1.313888052E+00 -2.954361171E-01 3.288347804E-02
 1.299319835E+00 -2.562881791E-01 3.310600720E-02
 1.301800466E+00 -2.306911719E-01 3.305676998E-02
 1.223014062E+00 -1.472518522E-01 3.398470428E-02
 1.236517240E+00 -1.488358255E-01 3.382436993E-02
 1.200000000E+00 -1.399999695E-01 3.371293314E-02
 1.210771662E+00 -1.380622634E-01 3.366537026E-02
 1.272194647E+00 -1.627938533E-01 3.341400105E-02
 1.253418784E+00 -1.489002186E-01 3.350959376E-02
 1.300544446E+00 -1.737654749E-01 3.259966147E-02
 1.302363450E+00 -2.036678324E-01 3.291789351E-02
 1.350000000E+00 -5.000000000E-01 3.195091217E-02
 1.397427828E+00 -4.516042659E-01 3.228415500E-02
 1.393785680E+00 -4.051771003E-01 3.264927262E-02
 1.349174715E+00 -3.699374185E-01 3.274758029E-02
 1.351176042E+00 -3.346842753E-01 3.266801634E-02
 1.324590977E+00 -2.623266998E-01 3.265976302E-02
 1.328439881E+00 -2.326984266E-01 3.244108198E-02
 1.220813384E+00 -1.334072372E-01 3.334860257E-02
 1.236687350E+00 -1.328649908E-01 3.316229021E-02
 1.210579613E+00 -1.299892931E-01 3.317273408E-02
 1.200000000E+00 -1.299999695E-01 3.317549878E-02
 1.287891839E+00 -1.541448618E-01 3.261310256E-02
 1.271044165E+00 -1.493456554E-01 3.304887536E-02
 1.252677881E+00 -1.313678660E-01 3.283406308E-02
 1.329253927E+00 -2.044579298E-01 3.213376483E-02
 1.329218103E+00 -1.767407174E-01 3.164719654E-02
 1.352871384E+00 -2.988704471E-01 3.251062780E-02
 1.400000000E+00 -5.000000000E-01 3.194632894E-02
 1.387124332E+00 -3.692897717E-01 3.263332525E-02
 1.447516805E+00 -4.483044856E-01 3.232149141E-02
 1.443365088E+00 -3.925891761E-01 3.263056167E-02
 1.387642433E+00 -3.353208261E-01 3.250571734E-02
 1.356659767E+00 -2.647303612E-01 3.223856241E-02
 1.358038726E+00 -2.330336319E-01 3.186867383E-02
 1.222863778E+00 -1.188423017E-01 3.252044189E-02
 1.236620461E+00 -1.177881350E-01 3.244474527E-02
 1.200000000E+00 -1.199999695E-01 3.252746619E-02
 1.210617818E+00 -1.184823104E-01 3.251639581E-02
 1.306797984E+00 -1.524851352E-01 3.181255414E-02
 1.270692245E+00 -1.312220600E-01 3.239546115E-02
 1.249816167E+00 -1.123782149E-01 3.191778670E-02
 1.330550835E+00 -1.516090686E-01 3.095562790E-02
 1.357047800E+00 -2.043575406E-01 3.140073613E-02
 1.356552403E+00 -1.770075265E-01 3.077151590E-02
 1.389436780E+00 -2.998378688E-01 3.227380951E-02
 1.450000000E+00 -5.000000000E-01 3.199233117E-02
 1.417688875E+00 -3.662969315E-01 3.257547575E-02
 1.499131819E+00 -4.488365179E-01 3.238863315E-02
 1.499112105E+00 -3.974552681E-01 3.272836189E-02
 1.422577205E+00 -3.370118466E-01 3.245059497E-02
 1.390899205E+00 -2.641631214E-01 3.188154286E-02
 1.389896523E+00 -2.299906891E-01 3.137599609E-02
 1.236960129E+00 -1.070450284E-01 3.169644550E-02
 1.223291376E+00 -1.056911973E-01 3.166403741E-02
 1.200000000E+00 -1.099999695E-01 3.187209213E-02
 1.208996602E+00 -1.051047223E-01 3.159321493E-02
 1.288949116E+00 -1.318582894E-01 3.184786315E-02
 1.308258837E+00 -1.300397109E-01 3.110704044E-02
 1.270041457E+00 -1.122622816E-01 3.156222252E-02
 1.329802477E+00 -1.264889816E-01 3.015034156E-02
 1.356431653E+00 -1.503186002E-01 2.997065851E-02
 1.383588272E+00 -1.762682289E-01 3.002183514E-02
 1.384365619E+00 -2.026179388E-01 3.078590736E-02
 1.426125544E+00 -3.006203566E-01 3.219235267E-02
 1.500000000E+00 -5.000000000E-01 3.205687735E-02
 1.458604408E+00 -3.455116940E-01 3.252730945E-02
 1.503818348E+00 -3.490806727E-01 3.269057080E-02
 1.549816649E+00 -4.495194326E-01 3.247693394E-02
 1.550035826E+00 -3.991730445E-01 3.288967482E-02
 1.427567302E+00 -2.620091083E-01 3.171838125E-02
 1.426275901E+00 -2.200569350E-01 3.080574238E-02
 1.224161815E+00 -9.178975249E-02 3.070997977E-02
 1.237951530E+00 -9.230544640E-02 3.077044746E-02
 1.200000000E+00 -9.999998474E-02 3.127019851E-02
 1.288917589E+00 -1.118301128E-01 3.106458547E-02
 1.307446016E+00 -1.092338107E-01 3.041982036E-02
 1.252780907E+00 -9.342776338E-02 3.076424228E-02
 1.270670280E+00 -9.359379713E-02 3.058252350E-02
 1.325117921E+00 -1.005119368E-01 2.934026758E-02
 1.355220307E+00 -1.235841808E-01 2.907436061E-02
 1.383396151E+00 -1.486749011E-01 2.906890572E-02
 1.410032272E+00 -1.766814203E-01 2.956915243E-02
 1.406891264E+00 -1.997854314E-01 3.035690941E-02
 1.464559654E+00 -3.032234193E-01 3.230617533E-02
 1.550000000E+00 -5.000000000E-01 3.213241619E-02
 1.506284368E+00 -3.035429834E-01 3.254162835E-02
 1.551060805E+00 -3.496486829E-01 3.297771512E-02
 1.600000000E+00 -4.000000000E-01 3.299743526E-02
 1.600000000E+00 -4.500000000E-01 3.253055306E-02
 1.466818453E+00 -2.630500159E-01 3.185098217E-02
 1.468823833E+00 -2.254138062E-01 3.106602714E-02
 1.211073818E+00 -9.135014956E-02 3.059701959E-02
 1.224118523E+00 -7.784962669E-02 2.969564999E-02
 1.237817199E+00 -7.694664289E-02 2.971227915E-02
 1.200000000E+00 -8.999998474E-02 3.052794953E-02
 1.289125693E+00 -9.371466656E-02 3.019752955E-02
 1.307489718E+00 -9.455348214E-02 2.970787780E-02
 1.252616101E+00 -7.540865344E-02 2.965382337E-02
 1.270590635E+00 -7.490373087E-02 2.952875046E-02
 1.352617431E+00 -9.707780073E-02 2.819665081E-02
 1.381946856E+00 -1.202030229E-01 2.803347951E-02
 1.411486788E+00 -1.475610773E-01 2.841444671E-02
 1.438125520E+00 -1.829313169E-01 2.952905367E-02
 1.506088259E+00 -2.615584551E-01 3.219391490E-02
 1.550273072E+00 -3.003052296E-01 3.299522046E-02
 1.600000000E+00 -3.500000000E-01 3.317553545E-02
 1.474177916E+00 -1.870113483E-01 2.992617455E-02
 1.507695579E+00 -2.315773540E-01 3.159450746E-02
 1.211061947E+00 -7.852304663E-02 2.965042408E-02
 1.236394068E+00 -6.223476328E-02 2.875950239E-02
 1.223204724E+00 -6.418232656E-02 2.871474505E-02
 1.200000000E+00 -7.999998474E-02 2.964755063E-02
 1.289253398E+00 -7.468592377E-02 2.926593063E-02
 1.308229489E+00 -7.466088765E-02 2.885050206E-02
 1.248997978E+00 -5.634823231E-02 2.843216796E-02
 1.269574329E+00 -5.586623393E-02 2.849097300E-02
 1.328139558E+00 -7.503458425E-02 2.827658526E-02
 1.351235763E+00 -7.220195003E-02 2.749523667E-02
 1.378700724E+00 -9.168541987E-02 2.710804043E-02
 1.410362267E+00 -1.167677040E-01 2.718993870E-02
 1.441906786E+00 -1.478570979E-01 2.815936793E-02
 1.543437062E+00 -2.481116956E-01 3.258387964E-02
 1.600000000E+00 -3.000000000E-01 3.332535166E-02
 1.477000034E+00 -1.485295896E-01 2.848906437E-02
 1.512433162E+00 -1.912254591E-01 3.063829973E-02
 1.209018930E+00 -6.489697625E-02 2.860269351E-02
 1.235464751E+00 -5.145524345E-02 2.794258862E-02
 1.223065621E+00 -5.177720932E-02 2.782199809E-02
 1.200000000E+00 -6.999998474E-02 2.887375621E-02
 1.288860626E+00 -5.531932375E-02 2.835958455E-02
 1.307914377E+00 -5.424949984E-02 2.802779731E-02
 1.269756457E+00 -3.688704086E-02 2.756275514E-02
 1.250940640E+00 -3.677626744E-02 2.733392883E-02
 1.327770690E+00 -5.256348019E-02 2.750554059E-02
 1.350945839E+00 -5.387956402E-02 2.688031040E-02
 1.372949304E+00 -6.257459635E-02 2.638287581E-02
 1.407157829E+00 -8.682004772E-02 2.622272082E-02
 1.440656879E+00 -1.122855518E-01 2.673407096E-02
 1.600000000E+00 -2.500000000E-01 3.327666096E-02
 1.514859522E+00 -1.491465667E-01 2.923021489E-02
 1.476646286E+00 -1.101128611E-01 2.699024081E-02
 1.552882057E+00 -1.972147958E-01 3.182373048E-02
 1.210827977E+00 -5.177952331E-02 2.767032390E-02
 1.222523657E+00 -3.970364802E-02 2.707720161E-02
 1.233212580E+00 -3.545825738E-02 2.698625699E-02
 1.200000000E+00 -6.000000000E-02 2.824950399E-02
 1.288491427E+00 -3.636794775E-02 2.758031969E-02
 1.306734568E+00 -3.442873131E-02 2.740167372E-02
 1.251638552E+00 -1.838685733E-02 2.646389145E-02
 1.269942984E+00 -1.851701520E-02 2.679221652E-02
 1.323938300E+00 -2.702875090E-02 2.691346931E-02
 1.351498812E+00 -2.799475607E-02 2.636802537E-02
 1.405645947E+00 -6.420773890E-02 2.551776028E-02
 1.433556811E+00 -7.433275936E-02 2.549041513E-02
 1.600000000E+00 -2.000000000E-01 3.262498218E-02
 1.555441416E+00 -1.496221403E-01 3.030690238E-02
 1.514228734E+00 -1.072672392E-01 2.766867999E-02
 1.474437125E+00 -7.227822930E-02 2.576925835E-02
 1.200000000E+00 -4.999998474E-02 2.757494754E-02
 1.211190839E+00 -4.044847366E-02 2.693848263E-02
 1.222327996E+00 -3.111674072E-02 2.648961338E-02
 1.288425483E+00 -1.875827123E-02 2.695353907E-02
 1.306594170E+00 -2.006872676E-02 2.694388389E-02
 1.234522844E+00 -1.821906524E-02 2.612840724E-02
 1.251008985E+00 -1.097445627E-05 2.580975612E-02
 1.269886067E+00 -1.781740475E-05 2.622896862E-02
 1.378218246E+00 -3.089830895E-02 2.570074540E-02
 1.326976683E+00 -4.779004451E-05 2.654894183E-02
 1.352537358E+00 -7.356960876E-05 2.624357006E-02
 1.408495408E+00 -3.286134863E-02 2.508978543E-02
 1.600000000E+00 -1.500000000E-01 3.099734434E-02
 1.553854741E+00 -1.021740673E-01 2.830667205E-02
 1.511416728E+00 -6.761027193E-02 2.640254187E-02
 1.439886277E+00 -3.607222905E-02 2.489010538E-02
 1.475686564E+00 -3.691602591E-02 2.521245987E-02
 1.200000000E+00 -3.999998474E-02 2.686610350E-02
 1.211192295E+00 -3.029889859E-02 2.631696609E-02
 1.222383452E+00 -1.900615888E-02 2.590645348E-02
 1.288515628E+00 -2.621027817E-05 2.651012870E-02
 1.307216195E+00 -3.357713739E-05 2.662039873E-02
 1.229610158E+00 2.341857905E-04 2.532404777E-02
 1.251636151E+00 1.836870873E-02 2.542447513E-02
 1.269935241E+00 1.848228870E-02 2.590438183E-02
 1.379797983E+00 -9.632294136E-05 2.574397276E-02
 1.351470482E+00 2.783276228E-02 2.659139164E-02
 1.323932053E+00 2.692830982E-02 2.665048168E-02
 1.409738049E+00 -1.132893677E-04 2.529025229E-02
 1.600000000E+00 -1.000000000E-01 2.863062244E-02
 1.545526578E+00 -5.178382583E-02 2.652963950E-02
 1.511382241E+00 -3.910208220E-02 2.580246801E-02
 1.476544747E+00 -9.243838485E-05 2.552692853E-02
 1.441650961E+00 -1.069973836E-04 2.519912146E-02
 1.200000000E+00 -2.999998474E-02 2.625070061E-02
 1.211154639E+00 -1.962276594E-02 2.576566756E-02
 1.221224785E+00 -7.046096442E-03 2.538993426E-02
 1.288405837E+00 1.869907806E-02 2.629252205E-02
 1.306585525E+00 1.999446807E-02 2.650595072E-02
 1.234521760E+00 1.821047799E-02 2.498614077E-02
 1.250933917E+00 3.676739418E-02 2.527384535E-02
 1.269746154E+00 3.685841572E-02 2.580595471E-02
 1.378217508E+00 3.070514641E-02 2.641615655E-02
 1.350972308E+00 5.371525776E-02 2.725645508E-02
 1.327784505E+00 5.245710523E-02 2.714816866E-02
 1.408469629E+00 3.262877590E-02 2.628204178E-02
 1.600000000E+00 -5.000000000E-02 2.664874795E-02
 1.512669199E+00 -6.330405099E-05 2.602359175E-02
 1.439891644E+00 3.586980305E-02 2.642267303E-02
 1.475659090E+00 3.673478418E-02 2.674314464E-02
 1.200000000E+00 -1.999998474E-02 2.571596595E-02
 1.210801369E+00 -9.168473943E-03 2.529992048E-02
 1.220221304E+00 5.639762474E-05 2.507605814E-02
 1.288474868E+00 3.631234574E-02 2.628768256E-02
 1.306727499E+00 3.435293817E-02 2.659642609E-02
 1.221732506E+00 7.235208221E-03 2.487074691E-02
 1.222382768E+00 1.900107353E-02 2.467899142E-02
 1.233205608E+00 3.545983268E-02 2.477571888E-02
 1.248989363E+00 5.635052891E-02 2.531017247E-02
 1.269566014E+00 5.584596093E-02 2.595139051E-02
 1.373003172E+00 6.240010054E-02 2.770834635E-02
 1.351303364E+00 7.204149296E-02 2.809293977E-02
 1.328178190E+00 7.493451365E-02 2.789560050E-02
 1.307917551E+00 5.417662905E-02 2.692058534E-02
 1.405709684E+00 6.399571184E-02 2.774251336E-02
 1.600000000E+00 0.000000000E+00 2.595951751E-02
 1.550979181E+00 -3.270768808E-05 2.610177625E-02
 1.511385226E+00 3.898221295E-02 2.696853968E-02
 1.433632175E+00 7.416468400E-02 2.858468736E-02
 1.474494489E+00 7.213525702E-02 2.863948105E-02
 1.200000000E+00 -9.999984741E-03 2.526523208E-02
 1.210724277E+00 -1.949596454E-06 2.495424183E-02
 1.288850065E+00 5.526984601E-02 2.650699793E-02
 1.210801396E+00 9.164896564E-03 2.469721095E-02
 1.211154489E+00 1.962011382E-02 2.450003921E-02
 1.222322322E+00 3.111775499E-02 2.452600093E-02
 1.235450332E+00 5.146777557E-02 2.483094370E-02
 1.252611646E+00 7.541961117E-02 2.575766102E-02
 1.270586836E+00 7.489373208E-02 2.632723738E-02
 1.308247619E+00 7.459550345E-02 2.748167580E-02
 1.352738475E+00 9.695080053E-02 2.926042400E-02
 1.325184380E+00 1.004443310E-01 2.887878610E-02
 1.407280919E+00 8.664577403E-02 2.931613588E-02
 1.378812997E+00 9.154289373E-02 2.935822191E-02
 1.545538209E+00 5.171893619E-02 2.730666167E-02
 1.600000000E+00 5.000000000E-02 2.674440659E-02
 1.511448995E+00 6.751066652E-02 2.844622301E-02
 1.440784140E+00 1.121768740E-01 3.107057114E-02
 1.476773204E+00 1.100281496E-01 3.083614048E-02
 1.200000000E+00 1.525878906E-08 2.490786052E-02
 1.289255985E+00 7.464309684E-02 2.693472667E-02
 1.211189755E+00 3.029936470E-02 2.438217897E-02
 1.200000000E+00 2.000001526E-02 2.444767302E-02
 1.200000000E+00 1.000001526E-02 2.463618089E-02
 1.222511158E+00 3.971074905E-02 2.449983957E-02
 1.236384903E+00 6.225190271E-02 2.499937299E-02
 1.223031967E+00 5.179529023E-02 2.457431563E-02
 1.237813826E+00 7.696919890E-02 2.533508565E-02
 1.252785182E+00 9.343834659E-02 2.623562761E-02
 1.270678249E+00 9.358874941E-02 2.684425381E-02
 1.307528336E+00 9.450321580E-02 2.807582641E-02
 1.355375073E+00 1.235396821E-01 3.067885593E-02
 1.329895772E+00 1.264614273E-01 3.017172770E-02
 1.382100654E+00 1.201196299E-01 3.102980878E-02
 1.410544384E+00 1.166774938E-01 3.113225745E-02
 1.553877641E+00 1.021345092E-01 2.927331965E-02
 1.600000000E+00 1.000000000E-01 2.846210642E-02
 1.514287551E+00 1.071991858E-01 3.036887857E-02
 1.477097263E+00 1.484691960E-01 3.277394989E-02
 1.442032078E+00 1.477792032E-01 3.300160895E-02
 1.289148449E+00 9.368005231E-02 2.748750114E-02
 1.211184913E+00 4.045263610E-02 2.436177090E-02
 1.200000000E+00 3.000000763E-02 2.434250739E-02
 1.223194453E+00 6.420878647E-02 2.474886272E-02
 1.210817070E+00 5.178825073E-02 2.442445542E-02
 1.237955246E+00 9.232523207E-02 2.575384101E-02
 1.224117723E+00 7.787881265E-02 2.504966390E-02
 1.249830209E+00 1.123921699E-01 2.678221911E-02
 1.270062404E+00 1.122674341E-01 2.746706800E-02
 1.307497685E+00 1.092003023E-01 2.873072555E-02
 1.356573963E+00 1.502979303E-01 3.197144543E-02
 1.330645218E+00 1.516128319E-01 3.122227979E-02
 1.308318734E+00 1.300397821E-01 2.958327333E-02
 1.411651072E+00 1.474937411E-01 3.286656368E-02
 1.383556386E+00 1.486335659E-01 3.252309738E-02
 1.555465803E+00 1.495986444E-01 3.109267543E-02
 1.600000000E+00 1.500000000E-01 3.026560418E-02
 1.514915459E+00 1.491027231E-01 3.223034411E-02
 1.438215852E+00 1.828487736E-01 3.414928186E-02
 1.474251996E+00 1.869625161E-01 3.391076350E-02
 1.288959290E+00 1.118138804E-01 2.814848331E-02
 1.200000000E+00 4.000000763E-02 2.432061799E-02
 1.209014623E+00 6.490670562E-02 2.459746187E-02
 1.200000000E+00 5.000000763E-02 2.438151722E-02
 1.236971481E+00 1.070627035E-01 2.616448501E-02
 1.224169582E+00 9.181251968E-02 2.543532960E-02
 1.211061591E+00 7.853647564E-02 2.491311851E-02
 1.270716490E+00 1.312473128E-01 2.819561633E-02
 1.252694177E+00 1.313892748E-01 2.759076962E-02
 1.306851450E+00 1.525118397E-01 3.041065329E-02
 1.329269621E+00 1.767561537E-01 3.200294956E-02
 1.356654475E+00 1.769861187E-01 3.287871786E-02
 1.288994820E+00 1.318928851E-01 2.891517066E-02
 1.383724054E+00 1.762569421E-01 3.351165742E-02
 1.410179425E+00 1.766140961E-01 3.395620589E-02
 1.552903700E+00 1.972002558E-01 3.233954413E-02
 1.600000000E+00 2.000000000E-01 3.163028849E-02
 1.512478788E+00 1.911932467E-01 3.336501083E-02
 1.468864887E+00 2.253720710E-01 3.429005372E-02
 1.426318918E+00 2.199935970E-01 3.449768656E-02
 1.200000000E+00 6.000000763E-02 2.449259712E-02
 1.236637804E+00 1.178030904E-01 2.661327466E-02
 1.223309353E+00 1.057036876E-01 2.588250023E-02
 1.211077243E+00 9.136201334E-02 2.527404226E-02
 1.200000000E+00 7.000000763E-02 2.464701936E-02
 1.200000000E+00 8.000000763E-02 2.489301287E-02
 1.236704289E+00 1.328808790E-01 2.719826974E-02
 1.253437625E+00 1.489259043E-01 2.827987133E-02
 1.271065346E+00 1.493823842E-01 2.883191222E-02
 1.300560602E+00 1.738057217E-01 3.088185059E-02
 1.287922233E+00 1.541864557E-01 2.967416211E-02
 1.329243826E+00 2.044859722E-01 3.259942718E-02
 1.357065422E+00 2.043607123E-01 3.341860627E-02
 1.384430117E+00 2.025920623E-01 3.403398575E-02
 1.406976153E+00 1.997332518E-01 3.436643621E-02
 1.543451725E+00 2.480991069E-01 3.303815567E-02
 1.600000000E+00 2.500000000E-01 3.238192182E-02
 1.507724215E+00 2.315486829E-01 3.381515053E-02
 1.466823718E+00 2.629948210E-01 3.411237551E-02
 1.427544683E+00 2.618997529E-01 3.428507653E-02
 1.222898939E+00 1.188479307E-01 2.638223964E-02
 1.209003562E+00 1.051102884E-01 2.574014297E-02
 1.200000000E+00 9.000000000E-02 2.522948727E-02
 1.220833492E+00 1.334127936E-01 2.695639644E-02
 1.236535842E+00 1.488567254E-01 2.784781942E-02
 1.272207015E+00 1.628381323E-01 2.945305695E-02
 1.253427776E+00 1.658144628E-01 2.897819978E-02
 1.302324973E+00 2.037233209E-01 3.174575811E-02
 1.328362739E+00 2.326858156E-01 3.304186080E-02
 1.357971233E+00 2.329835310E-01 3.371207194E-02
 1.389902570E+00 2.299348074E-01 3.426311394E-02
 1.550279022E+00 3.002991182E-01 3.296047331E-02
 1.600000000E+00 3.000000000E-01 3.264852102E-02
 1.506101461E+00 2.615303070E-01 3.372696542E-02
 1.426081984E+00 3.005046510E-01 3.381787544E-02
 1.464545830E+00 3.031646060E-01 3.368768461E-02
 1.390873118E+00 2.640602606E-01 3.411727313E-02
 1.210631214E+00 1.184857412E-01 2.627038461E-02
 1.200000000E+00 1.000000000E-01 2.556288312E-02
 1.223034827E+00 1.472617618E-01 2.759012553E-02
 1.210591777E+00 1.299904994E-01 2.670884499E-02
 1.232893682E+00 1.661909116E-01 2.854660259E-02
 1.276434734E+00 1.818508385E-01 3.025211702E-02
 1.255190155E+00 1.851282146E-01 2.976583992E-02
 1.301708942E+00 2.307188160E-01 3.234288045E-02
 1.277806798E+00 2.054973152E-01 3.106193205E-02
 1.356539867E+00 2.645825982E-01 3.369237033E-02
 1.324471462E+00 2.622456928E-01 3.318181160E-02
 1.506286403E+00 3.035198081E-01 3.341713359E-02
 1.551063359E+00 3.496448209E-01 3.290353112E-02
 1.600000000E+00 3.500000000E-01 3.271058773E-02
 1.422529247E+00 3.369000889E-01 3.343667043E-02
 1.458585324E+00 3.454605164E-01 3.335121169E-02
 1.389359610E+00 2.996729058E-01 3.371696347E-02
 1.200000000E+00 1.100000000E-01 2.587430147E-02
 1.200000000E+00 1.200000076E-01 2.626140491E-02
 1.210783709E+00 1.380648645E-01 2.710518734E-02
 1.211709567E+00 1.488561649E-01 2.755695657E-02