TITLE     = "fluent21.1.0  build-id: 10179"
VARIABLES = "X"
"Y"
"Velocity Magnitude"
DATASETAUXDATA CFDA.ID1="Pressure"
DATASETAUXDATA CFDA.ID2="Density"
DATASETAUXDATA Common.DensityVar="12"
DATASETAUXDATA Common.PressureVar="3"
DATASETAUXDATA Common.UVar="5"
DATASETAUXDATA Common.VectorVarsAreVelocity="TRUE"
DATASETAUXDATA Common.ViscosityVar="14"
DATASETAUXDATA Common.VVar="7"
ZONE T="sur_out"
 STRANDID=1, SOLUTIONTIME=483.25
 Nodes=3645, Elements=3561, ZONETYPE=FEQuadrilateral
 DATAPACKING=POINT
 FACENEIGHBORCONNECTIONS=420
 FACENEIGHBORMODE=GLOBALONETOMANY
 DT=(DOUBLE DOUBLE DOUBLE )
 9.800000000E-01 -1.499999695E-01 3.412159763E-02
 9.848922573E-01 -1.592536950E-01 3.396055317E-02
 9.716137399E-01 -1.610950442E-01 3.456818847E-02
 9.700000000E-01 -1.499999695E-01 3.456378518E-02
 9.900000000E-01 -1.499999695E-01 3.371858540E-02
 9.844187159E-01 -1.737998713E-01 3.403936594E-02
 9.710235029E-01 -1.735375376E-01 3.458715332E-02
 9.983364284E-01 -1.613115469E-01 3.332306746E-02
 1.000000000E+00 -1.499999695E-01 3.324825692E-02
 9.983397345E-01 -1.742551693E-01 3.340148090E-02
 9.664596712E-01 -1.855372630E-01 3.472140253E-02
 9.833260674E-01 -1.880699545E-01 3.402840492E-02
 1.010051393E+00 -1.616764781E-01 3.275670681E-02
 1.010000000E+00 -1.499999695E-01 3.270038164E-02
 1.011199641E+00 -1.737185131E-01 3.282872308E-02
 9.993782330E-01 -1.881456019E-01 3.337103504E-02
 9.828825642E-01 -2.046390800E-01 3.391495835E-02
 9.668813886E-01 -2.041200589E-01 3.447973192E-02
 1.020000000E+00 -1.499999695E-01 3.216919341E-02
 1.020622692E+00 -1.616086685E-01 3.223059315E-02
 1.016173878E+00 -1.853463946E-01 3.265792652E-02
 1.020233559E+00 -1.735960104E-01 3.235521691E-02
 9.996054517E-01 -2.048024578E-01 3.331305021E-02
 9.815895196E-01 -2.213614293E-01 3.376136376E-02
 9.685570950E-01 -2.213401947E-01 3.418837169E-02
 1.030000000E+00 -1.499999695E-01 3.163259681E-02
 1.032169937E+00 -1.610900711E-01 3.168759999E-02
 1.016744298E+00 -2.040925117E-01 3.271038539E-02
 1.032912106E+00 -1.736653216E-01 3.183010959E-02
 9.992910245E-01 -2.221047175E-01 3.325592872E-02
 9.756273949E-01 -2.373617250E-01 3.374520306E-02
 1.040000000E+00 -1.499999695E-01 3.112782254E-02
 1.045114628E+00 -1.590086361E-01 3.104261076E-02
 1.033265806E+00 -1.870865293E-01 3.199393519E-02
 1.017416959E+00 -2.218971282E-01 3.272204752E-02
 1.033662296E+00 -2.040728278E-01 3.214191711E-02
 1.045937816E+00 -1.727914685E-01 3.128748702E-02
 9.985327983E-01 -2.402789198E-01 3.318491851E-02
 1.050000000E+00 -1.499999695E-01 3.073981173E-02
 1.050233938E+00 -1.850747144E-01 3.133514023E-02
 1.034993406E+00 -2.210159044E-01 3.224878477E-02
 1.018567410E+00 -2.401695756E-01 3.271686629E-02
 1.049529382E+00 -2.038224278E-01 3.163816401E-02
 1.055472723E+00 -1.733672214E-01 3.087029772E-02
 1.057437524E+00 -1.610852910E-01 3.053442317E-02
 1.000627150E+00 -2.613049857E-01 3.307558286E-02
 9.773085229E-01 -2.622297408E-01 3.345216337E-02
 1.060000000E+00 -1.499999695E-01 3.035311136E-02
 1.041074334E+00 -2.369678404E-01 3.220530136E-02
 1.047781505E+00 -2.210136085E-01 3.187212200E-02
 1.017155969E+00 -2.611881674E-01 3.272944954E-02
 1.066926723E+00 -1.882063995E-01 3.083986968E-02
 1.066331260E+00 -2.048507278E-01 3.119074039E-02
 1.069137140E+00 -1.618931851E-01 3.009043114E-02
 1.068281615E+00 -1.745174118E-01 3.046818701E-02
 1.009533852E+00 -2.811661627E-01 3.285398397E-02
 9.804534319E-01 -2.863888876E-01 3.321598152E-02
 1.070000000E+00 -1.499999695E-01 2.990382621E-02
 1.039866733E+00 -2.617011538E-01 3.237012203E-02
 1.065528897E+00 -2.222482613E-01 3.150856319E-02
 1.082807145E+00 -1.881893719E-01 3.038396454E-02
 1.083243592E+00 -2.048443897E-01 3.077277786E-02
 1.080805141E+00 -1.618902319E-01 2.965386103E-02
 1.081565077E+00 -1.745032500E-01 3.001577388E-02
 1.012356823E+00 -3.115213046E-01 3.279539250E-02
 9.831312867E-01 -3.144958131E-01 3.303431020E-02
 1.080000000E+00 -1.499999695E-01 2.947483816E-02
 1.064082293E+00 -2.407146395E-01 3.178739144E-02
 1.064088385E+00 -2.627646382E-01 3.201335989E-02
 1.037075888E+00 -2.854274682E-01 3.248938662E-02
 1.083864031E+00 -2.222033160E-01 3.113948847E-02
 1.099486486E+00 -1.850944388E-01 2.987153408E-02
 1.099910236E+00 -2.038713121E-01 3.042037002E-02
 1.094365329E+00 -1.733720081E-01 2.958946890E-02
 1.092502972E+00 -1.610862215E-01 2.923294194E-02
 1.022841537E+00 -3.375099004E-01 3.268681253E-02
 9.868071138E-01 -3.436345611E-01 3.290505770E-02
 1.033920782E+00 -3.123679350E-01 3.257170848E-02
 1.090000000E+00 -1.499999695E-01 2.906169077E-02
 1.085547599E+00 -2.405231215E-01 3.145070234E-02
 1.087340913E+00 -2.618505698E-01 3.171652354E-02
 1.064981623E+00 -2.863227954E-01 3.219209420E-02
 1.101130245E+00 -2.211136646E-01 3.083757724E-02
 1.115757568E+00 -2.042031502E-01 3.016964565E-02
 1.116444294E+00 -1.871490466E-01 2.960008280E-02
 1.103906780E+00 -1.728041222E-01 2.928104199E-02
 1.104836161E+00 -1.590111686E-01 2.875923107E-02
 1.021183783E+00 -3.760787075E-01 3.269248778E-02
 9.869527790E-01 -3.766223339E-01 3.282937950E-02
 1.063403816E+00 -3.144412140E-01 3.234851672E-02
 1.100000000E+00 -1.499999695E-01 2.867742942E-02
 1.106881150E+00 -2.371360624E-01 3.113961113E-02
 1.104335385E+00 -2.613591635E-01 3.154962944E-02
 1.095341859E+00 -2.823295914E-01 3.190097962E-02
 1.113865562E+00 -2.212439679E-01 3.066919344E-02
 1.116938063E+00 -1.736948971E-01 2.904238719E-02
 1.132815920E+00 -2.043440398E-01 3.001564615E-02
 1.133612890E+00 -1.854573840E-01 2.928279342E-02
 1.117773430E+00 -1.610986654E-01 2.849776474E-02
 1.059939183E+00 -3.439469938E-01 3.247410188E-02
 1.016345184E+00 -4.113899500E-01 3.263341909E-02
 9.867114171E-01 -4.098558494E-01 3.272730433E-02
 1.058659910E+00 -3.782157546E-01 3.255147533E-02
 1.094795505E+00 -3.145426680E-01 3.216709847E-02
 1.110000000E+00 -1.499999695E-01 2.842440363E-02
 1.127756127E+00 -2.637398129E-01 3.150119359E-02
 1.129522491E+00 -2.412843810E-01 3.109137636E-02
 1.131687493E+00 -2.224391680E-01 3.060090949E-02
 1.129638257E+00 -1.736485226E-01 2.879117135E-02
 1.150230418E+00 -2.051162054E-01 2.995440174E-02
 1.150499395E+00 -1.882933044E-01 2.927623176E-02
 1.120000000E+00 -1.499999695E-01 2.822658563E-02
 1.129327418E+00 -1.616266773E-01 2.827242036E-02
 1.094861358E+00 -3.454273222E-01 3.233233677E-02
 1.000655724E+00 -4.453158168E-01 3.233742746E-02
 1.056847931E+00 -4.142106228E-01 3.252260452E-02
 1.096716176E+00 -3.782292088E-01 3.244164830E-02
 1.125255870E+00 -2.875727602E-01 3.183109975E-02
 1.125638385E+00 -3.154065442E-01 3.208400238E-02
 1.151766799E+00 -2.416472456E-01 3.109459043E-02
 1.151917607E+00 -2.644260424E-01 3.152270016E-02
 1.150555499E+00 -2.227815862E-01 3.057220431E-02
 1.138686372E+00 -1.737821869E-01 2.865978714E-02
 1.167095301E+00 -2.049300419E-01 2.997121279E-02
 1.166640853E+00 -1.881764494E-01 2.927623194E-02
 1.151584490E+00 -1.743234836E-01 2.861535344E-02
 1.130000000E+00 -1.499999695E-01 2.800172444E-02
 1.139909851E+00 -1.616993572E-01 2.811660867E-02
 1.128054094E+00 -3.445429921E-01 3.226378973E-02
 1.051963525E+00 -4.537702264E-01 3.216240962E-02
 1.100448762E+00 -4.133041887E-01 3.245128494E-02
 1.133006440E+00 -3.752730060E-01 3.238459555E-02
 1.152286078E+00 -2.886623079E-01 3.185192688E-02
 1.154501610E+00 -3.145968655E-01 3.209479585E-02
 1.175072661E+00 -2.380518194E-01 3.114846863E-02
 1.175872033E+00 -2.634051138E-01 3.165239748E-02
 1.168545595E+00 -2.219078943E-01 3.058177698E-02
 1.165552831E+00 -1.738297688E-01 2.860075343E-02
 1.183028520E+00 -2.044457675E-01 3.010250682E-02
 1.183490904E+00 -1.856101349E-01 2.931984043E-02
 1.151641450E+00 -1.613330053E-01 2.801655634E-02
 1.140000000E+00 -1.499999695E-01 2.784066004E-02
 1.158759274E+00 -3.418150085E-01 3.227220401E-02
 1.100399912E+00 -4.552733900E-01 3.210704046E-02
 1.050000000E+00 -5.000000000E-01 3.185606745E-02
 1.000000000E+00 -5.000000000E-01 3.193843993E-02
 1.147907489E+00 -4.050819153E-01 3.243686138E-02
 1.159348002E+00 -3.732379079E-01 3.239383894E-02
 1.181365030E+00 -3.119792214E-01 3.216609289E-02
 1.177469746E+00 -2.877829475E-01 3.196235632E-02
 1.197733932E+00 -2.414135583E-01 3.150775629E-02
 1.199011059E+00 -2.631488073E-01 3.189513398E-02
 1.181458919E+00 -2.218681297E-01 3.071437046E-02
 1.178923151E+00 -1.735406110E-01 2.865841577E-02
 1.165098254E+00 -1.592588202E-01 2.792492728E-02
 1.200145781E+00 -2.053367669E-01 3.039247190E-02
 1.200628640E+00 -1.882138239E-01 2.974530544E-02
 1.150000000E+00 -1.499999695E-01 2.773711526E-02
 1.193203628E+00 -3.344623711E-01 3.235772416E-02
 1.100000000E+00 -5.000000000E-01 3.179442435E-02
 1.149254346E+00 -4.536970090E-01 3.211585289E-02
 1.197809781E+00 -3.702839722E-01 3.247901953E-02
 1.200285133E+00 -3.110747014E-01 3.230115898E-02
 1.200359926E+00 -2.868726543E-01 3.215627730E-02
 1.199197208E+00 -2.230512058E-01 3.100791071E-02
 1.217555883E+00 -2.413146796E-01 3.184911077E-02
 1.221961020E+00 -2.606383780E-01 3.221779269E-02
 1.188311478E+00 -1.736318395E-01 2.884295948E-02
 1.178337393E+00 -1.610907009E-01 2.813207250E-02
 1.160000000E+00 -1.499999695E-01 2.764975065E-02
 1.201489354E+00 -1.738255933E-01 2.916897680E-02
 1.217755271E+00 -2.056393390E-01 3.080065428E-02
 1.217484387E+00 -1.880378921E-01 3.017520382E-02
 1.150000000E+00 -5.000000000E-01 3.180194153E-02
 1.197626729E+00 -4.091578427E-01 3.250479283E-02
 1.198794652E+00 -4.540558880E-01 3.216535974E-02
 1.227844520E+00 -3.360201221E-01 3.255744352E-02
 1.241121511E+00 -3.633151814E-01 3.265414669E-02
 1.226181157E+00 -3.102102684E-01 3.251562598E-02
 1.224581716E+00 -2.849485600E-01 3.243079385E-02
 1.217397501E+00 -2.235836463E-01 3.137165097E-02
 1.233080811E+00 -2.395787495E-01 3.211895797E-02
 1.246650166E+00 -2.531168366E-01 3.258463228E-02
 1.189377927E+00 -1.615313082E-01 2.835630850E-02
 1.170000000E+00 -1.499999695E-01 2.769311630E-02
 1.180000000E+00 -1.499999695E-01 2.788073697E-02
 1.200929522E+00 -1.613664272E-01 2.865051986E-02
 1.216200337E+00 -1.720115854E-01 2.955982322E-02
 1.235970011E+00 -2.055955020E-01 3.131940029E-02
 1.235382386E+00 -1.862393431E-01 3.071784863E-02
 1.200000000E+00 -5.000000000E-01 3.184331231E-02
 1.246059916E+00 -4.064727843E-01 3.261728816E-02
 1.248329222E+00 -4.530442975E-01 3.223927029E-02
 1.250871786E+00 -3.360926673E-01 3.274776275E-02
 1.251982826E+00 -3.084644819E-01 3.278406568E-02
 1.249714351E+00 -2.817292447E-01 3.277771903E-02
 1.235036384E+00 -2.243047324E-01 3.182999056E-02
 1.253623546E+00 -2.284130968E-01 3.239597687E-02
 1.190000000E+00 -1.499999695E-01 2.811018825E-02
 1.212938254E+00 -1.600298976E-01 2.899228778E-02
 1.199999988E+00 -1.499999762E-01 2.830458685E-02
 1.232889354E+00 -1.661529585E-01 2.996438257E-02
 1.255679771E+00 -2.061657539E-01 3.196172902E-02
 1.255220811E+00 -1.850516130E-01 3.140879401E-02
 1.250000000E+00 -5.000000000E-01 3.190456149E-02
 1.297108723E+00 -3.998765363E-01 3.278004563E-02
 1.298438804E+00 -4.514649641E-01 3.230379309E-02
 1.282918700E+00 -3.666694765E-01 3.285762440E-02
 1.282396201E+00 -3.354743188E-01 3.296602246E-02
 1.275406730E+00 -2.797204147E-01 3.317164606E-02
 1.280962038E+00 -3.048866989E-01 3.309045182E-02
 1.274606118E+00 -2.547848815E-01 3.318496012E-02
 1.276991368E+00 -2.298603804E-01 3.302873830E-02
 1.222947223E+00 -1.578115694E-01 2.926037024E-02
 1.211693653E+00 -1.488525539E-01 2.850341138E-02
 1.253417301E+00 -1.657890145E-01 3.080046718E-02
 1.277872707E+00 -2.054215006E-01 3.266836153E-02
 1.276450853E+00 -1.817888279E-01 3.212175632E-02
 1.300000000E+00 -5.000000000E-01 3.195215292E-02
 1.347128132E+00 -4.070835262E-01 3.283458868E-02
 1.348266969E+00 -4.526190837E-01 3.232779081E-02
 1.310998062E+00 -3.676919305E-01 3.298910791E-02
 1.314678295E+00 -3.335791621E-01 3.317554778E-02
 1.296204872E+00 -2.771482370E-01 3.348950863E-02
 1.313888052E+00 -2.954361171E-01 3.349912875E-02
 1.299319835E+00 -2.562881791E-01 3.364634631E-02
 1.301800466E+00 -2.306911719E-01 3.364164452E-02
 1.223014062E+00 -1.472518522E-01 2.891830801E-02
 1.236517240E+00 -1.488358255E-01 2.950915607E-02
 1.200000000E+00 -1.399999695E-01 2.791928114E-02
 1.210771662E+00 -1.380622634E-01 2.807614248E-02
 1.272194647E+00 -1.627938533E-01 3.146615118E-02
 1.253418784E+00 -1.489002186E-01 3.020377833E-02
 1.300544446E+00 -1.737654749E-01 3.275540139E-02
 1.302363450E+00 -2.036678324E-01 3.336872614E-02
 1.350000000E+00 -5.000000000E-01 3.196036814E-02
 1.397427828E+00 -4.516042659E-01 3.231852698E-02
 1.393785680E+00 -4.051771003E-01 3.284924771E-02
 1.349174715E+00 -3.699374185E-01 3.306425376E-02
 1.351176042E+00 -3.346842753E-01 3.330062166E-02
 1.324590977E+00 -2.623266998E-01 3.396458904E-02
 1.328439881E+00 -2.326984266E-01 3.414967778E-02
 1.220813384E+00 -1.334072372E-01 2.830427832E-02
 1.236687350E+00 -1.328649908E-01 2.892974477E-02
 1.210579613E+00 -1.299892931E-01 2.772340376E-02
 1.200000000E+00 -1.299999695E-01 2.753522070E-02
 1.287891839E+00 -1.541448618E-01 3.169890506E-02
 1.271044165E+00 -1.493456554E-01 3.088742543E-02
 1.252677881E+00 -1.313678660E-01 2.954070178E-02
 1.329253927E+00 -2.044579298E-01 3.400601671E-02
 1.329218103E+00 -1.767407174E-01 3.356754067E-02
 1.352871384E+00 -2.988704471E-01 3.368181824E-02
 1.400000000E+00 -5.000000000E-01 3.194028930E-02
 1.387124332E+00 -3.692897717E-01 3.309059773E-02
 1.447516805E+00 -4.483044856E-01 3.227706686E-02
 1.443365088E+00 -3.925891761E-01 3.283459737E-02
 1.387642433E+00 -3.353208261E-01 3.331198962E-02
 1.356659767E+00 -2.647303612E-01 3.414794391E-02
 1.358038726E+00 -2.330336319E-01 3.445172438E-02
 1.222863778E+00 -1.188423017E-01 2.783558270E-02
 1.236620461E+00 -1.177881350E-01 2.836286380E-02
 1.200000000E+00 -1.199999695E-01 2.714482112E-02
 1.210617818E+00 -1.184823104E-01 2.735186574E-02
 1.306797984E+00 -1.524851352E-01 3.225207301E-02
 1.270692245E+00 -1.312220600E-01 3.020656935E-02
 1.249816167E+00 -1.123782149E-01 2.868202372E-02
 1.330550835E+00 -1.516090686E-01 3.275530020E-02
 1.357047800E+00 -2.043575406E-01 3.441146243E-02
 1.356552403E+00 -1.770075265E-01 3.400318828E-02
 1.389436780E+00 -2.998378688E-01 3.366927678E-02
 1.450000000E+00 -5.000000000E-01 3.189690788E-02
 1.417688875E+00 -3.662969315E-01 3.306749391E-02
 1.499131819E+00 -4.488365179E-01 3.219051971E-02
 1.499112105E+00 -3.974552681E-01 3.263886168E-02
 1.422577205E+00 -3.370118466E-01 3.319402971E-02
 1.390899205E+00 -2.641631214E-01 3.412659558E-02
 1.389896523E+00 -2.299906891E-01 3.446233642E-02
 1.236960129E+00 -1.070450284E-01 2.792152189E-02
 1.223291376E+00 -1.056911973E-01 2.737292972E-02
 1.200000000E+00 -1.099999695E-01 2.674955457E-02
 1.208996602E+00 -1.051047223E-01 2.681369066E-02
 1.288949116E+00 -1.318582894E-01 3.083680865E-02
 1.308258837E+00 -1.300397109E-01 3.126832711E-02
 1.270041457E+00 -1.122622816E-01 2.936391822E-02
 1.329802477E+00 -1.264889816E-01 3.152651503E-02
 1.356431653E+00 -1.503186002E-01 3.309957757E-02
 1.383588272E+00 -1.762682289E-01 3.411678637E-02
 1.384365619E+00 -2.026179388E-01 3.448917892E-02
 1.426125544E+00 -3.006203566E-01 3.345448357E-02
 1.500000000E+00 -5.000000000E-01 3.182314869E-02
 1.458604408E+00 -3.455116940E-01 3.297390498E-02
 1.503818348E+00 -3.490806727E-01 3.271507087E-02
 1.549816649E+00 -4.495194326E-01 3.209699690E-02
 1.550035826E+00 -3.991730445E-01 3.248145885E-02
 1.427567302E+00 -2.620091083E-01 3.381632785E-02
 1.426275901E+00 -2.200569350E-01 3.406038130E-02
 1.224161815E+00 -9.178975249E-02 2.695735975E-02
 1.237951530E+00 -9.230544640E-02 2.750594460E-02
 1.200000000E+00 -9.999998474E-02 2.646999542E-02
 1.288917589E+00 -1.118301128E-01 2.988703855E-02
 1.307446016E+00 -1.092338107E-01 3.021626565E-02
 1.252780907E+00 -9.342776338E-02 2.806283446E-02
 1.270670280E+00 -9.359379713E-02 2.857622445E-02
 1.325117921E+00 -1.005119368E-01 2.994792939E-02
 1.355220307E+00 -1.235841808E-01 3.167508584E-02
 1.383396151E+00 -1.486749011E-01 3.319101641E-02
 1.410032272E+00 -1.766814203E-01 3.396419535E-02
 1.406891264E+00 -1.997854314E-01 3.435880263E-02
 1.464559654E+00 -3.032234193E-01 3.309252767E-02
 1.550000000E+00 -5.000000000E-01 3.174568339E-02
 1.506284368E+00 -3.035429834E-01 3.267446627E-02
 1.551060805E+00 -3.496486829E-01 3.244937893E-02
 1.600000000E+00 -4.000000000E-01 3.240934150E-02
 1.600000000E+00 -4.500000000E-01 3.205825830E-02
 1.466818453E+00 -2.630500159E-01 3.326681242E-02
 1.468823833E+00 -2.254138062E-01 3.325687495E-02
 1.211073818E+00 -9.135014956E-02 2.645674471E-02
 1.224118523E+00 -7.784962669E-02 2.657496986E-02
 1.237817199E+00 -7.694664289E-02 2.704506094E-02
 1.200000000E+00 -8.999998474E-02 2.622181633E-02
 1.289125693E+00 -9.371466656E-02 2.899021977E-02
 1.307489718E+00 -9.455348214E-02 2.930639474E-02
 1.252616101E+00 -7.540865344E-02 2.746976687E-02
 1.270590635E+00 -7.490373087E-02 2.784963383E-02
 1.352617431E+00 -9.707780073E-02 2.998054585E-02
 1.381946856E+00 -1.202030229E-01 3.168838093E-02
 1.411486788E+00 -1.475610773E-01 3.301690608E-02
 1.438125520E+00 -1.829313169E-01 3.353604057E-02
 1.506088259E+00 -2.615584551E-01 3.265982858E-02
 1.550273072E+00 -3.003052296E-01 3.224823916E-02
 1.600000000E+00 -3.500000000E-01 3.231506784E-02
 1.474177916E+00 -1.870113483E-01 3.275431950E-02
 1.507695579E+00 -2.315773540E-01 3.247383664E-02
 1.211061947E+00 -7.852304663E-02 2.612396110E-02
 1.236394068E+00 -6.223476328E-02 2.665924144E-02
 1.223204724E+00 -6.418232656E-02 2.625848826E-02
 1.200000000E+00 -7.999998474E-02 2.591918890E-02
 1.289253398E+00 -7.468592377E-02 2.814676661E-02
 1.308229489E+00 -7.466088765E-02 2.835611259E-02
 1.248997978E+00 -5.634823231E-02 2.689637846E-02
 1.269574329E+00 -5.586623393E-02 2.723890904E-02
 1.328139558E+00 -7.503458425E-02 2.847910802E-02
 1.351235763E+00 -7.220195003E-02 2.845659147E-02
 1.378700724E+00 -9.168541987E-02 2.987313528E-02
 1.410362267E+00 -1.167677040E-01 3.146747472E-02
 1.441906786E+00 -1.478570979E-01 3.254145327E-02
 1.543437062E+00 -2.481116956E-01 3.189577823E-02
 1.600000000E+00 -3.000000000E-01 3.203760577E-02
 1.477000034E+00 -1.485295896E-01 3.169703343E-02
 1.512433162E+00 -1.912254591E-01 3.180131195E-02
 1.209018930E+00 -6.489697625E-02 2.577440643E-02
 1.235464751E+00 -5.145524345E-02 2.643514412E-02
 1.223065621E+00 -5.177720932E-02 2.606638063E-02
 1.200000000E+00 -6.999998474E-02 2.565095593E-02
 1.288860626E+00 -5.531932375E-02 2.739578799E-02
 1.307914377E+00 -5.424949984E-02 2.740606105E-02
 1.269756457E+00 -3.688704086E-02 2.682965191E-02
 1.250940640E+00 -3.677626744E-02 2.665035703E-02
 1.327770690E+00 -5.256348019E-02 2.729595768E-02
 1.350945839E+00 -5.387956402E-02 2.723478911E-02
 1.372949304E+00 -6.257459635E-02 2.787623875E-02
 1.407157829E+00 -8.682004772E-02 2.972885496E-02
 1.440656879E+00 -1.122855518E-01 3.098089896E-02
 1.600000000E+00 -2.500000000E-01 3.145510857E-02
 1.514859522E+00 -1.491465667E-01 3.063622099E-02
 1.476646286E+00 -1.101128611E-01 3.018088160E-02
 1.552882057E+00 -1.972147958E-01 3.082831650E-02
 1.210827977E+00 -5.177952331E-02 2.567106377E-02
 1.222523657E+00 -3.970364802E-02 2.596443411E-02
 1.233212580E+00 -3.545825738E-02 2.629169919E-02
 1.200000000E+00 -6.000000000E-02 2.551762554E-02
 1.288491427E+00 -3.636794775E-02 2.685923303E-02
 1.306734568E+00 -3.442873131E-02 2.676141890E-02
 1.251638552E+00 -1.838685733E-02 2.658231646E-02
 1.269942984E+00 -1.851701520E-02 2.663860582E-02
 1.323938300E+00 -2.702875090E-02 2.634768640E-02
 1.351498812E+00 -2.799475607E-02 2.610356656E-02
 1.405645947E+00 -6.420773890E-02 2.811325216E-02
 1.433556811E+00 -7.433275936E-02 2.891168465E-02
 1.600000000E+00 -2.000000000E-01 3.034381545E-02
 1.555441416E+00 -1.496221403E-01 2.939201510E-02
 1.514228734E+00 -1.072672392E-01 2.912491759E-02
 1.474437125E+00 -7.227822930E-02 2.852476860E-02
 1.200000000E+00 -4.999998474E-02 2.547466325E-02
 1.211190839E+00 -4.044847366E-02 2.561997431E-02
 1.222327996E+00 -3.111674072E-02 2.596521955E-02
 1.288425483E+00 -1.875827123E-02 2.655824932E-02
 1.306594170E+00 -2.006872676E-02 2.637838658E-02
 1.234522844E+00 -1.821906524E-02 2.637446358E-02
 1.251008985E+00 -1.097445627E-05 2.671312368E-02
 1.269886067E+00 -1.781740475E-05 2.665536909E-02
 1.378218246E+00 -3.089830895E-02 2.617360438E-02
 1.326976683E+00 -4.779004451E-05 2.570471528E-02
 1.352537358E+00 -7.356960876E-05 2.528894310E-02
 1.408495408E+00 -3.286134863E-02 2.654876363E-02
 1.600000000E+00 -1.500000000E-01 2.872650216E-02
 1.553854741E+00 -1.021740673E-01 2.774535444E-02
 1.511416728E+00 -6.761027193E-02 2.778724449E-02
 1.439886277E+00 -3.607222905E-02 2.700247916E-02
 1.475686564E+00 -3.691602591E-02 2.710024337E-02
 1.200000000E+00 -3.999998474E-02 2.543703398E-02
 1.211192295E+00 -3.029889859E-02 2.564440977E-02
 1.222383452E+00 -1.900615888E-02 2.607383052E-02
 1.288515628E+00 -2.621027817E-05 2.644608789E-02
 1.307216195E+00 -3.357713739E-05 2.612129285E-02
 1.229610158E+00 2.341857905E-04 2.656335968E-02
 1.251636151E+00 1.836870873E-02 2.706646635E-02
 1.269935241E+00 1.848228870E-02 2.688259955E-02
 1.379797983E+00 -9.632294136E-05 2.514136984E-02
 1.351470482E+00 2.783276228E-02 2.503939424E-02
 1.323932053E+00 2.692830982E-02 2.566218747E-02
 1.409738049E+00 -1.132893677E-04 2.540040580E-02
 1.600000000E+00 -1.000000000E-01 2.699142715E-02
 1.545526578E+00 -5.178382583E-02 2.645534545E-02
 1.511382241E+00 -3.910208220E-02 2.682669482E-02
 1.476544747E+00 -9.243838485E-05 2.630093976E-02
 1.441650961E+00 -1.069973836E-04 2.592811608E-02
 1.200000000E+00 -2.999998474E-02 2.547540819E-02
 1.211154639E+00 -1.962276594E-02 2.575178213E-02
 1.221224785E+00 -7.046096442E-03 2.620002314E-02
 1.288405837E+00 1.869907806E-02 2.654080045E-02
 1.306585525E+00 1.999446807E-02 2.611300514E-02
 1.234521760E+00 1.821047799E-02 2.708816679E-02
 1.250933917E+00 3.676739418E-02 2.760315952E-02
 1.269746154E+00 3.685841572E-02 2.729942840E-02
 1.378217508E+00 3.070514641E-02 2.479761753E-02
 1.350972308E+00 5.371525776E-02 2.527838164E-02
 1.327784505E+00 5.245710523E-02 2.587848643E-02
 1.408469629E+00 3.262877590E-02 2.501485564E-02
 1.600000000E+00 -5.000000000E-02 2.573985770E-02
 1.512669199E+00 -6.330405099E-05 2.635286307E-02
 1.439891644E+00 3.586980305E-02 2.565266383E-02
 1.475659090E+00 3.673478418E-02 2.629564248E-02
 1.200000000E+00 -1.999998474E-02 2.558975457E-02
 1.210801369E+00 -9.168473943E-03 2.592316396E-02
 1.220221304E+00 5.639762474E-05 2.635828705E-02
 1.288474868E+00 3.631234574E-02 2.682037038E-02
 1.306727499E+00 3.435293817E-02 2.627648970E-02
 1.221732506E+00 7.235208221E-03 2.661284422E-02
 1.222382768E+00 1.900107353E-02 2.700696182E-02
 1.233205608E+00 3.545983268E-02 2.770014850E-02
 1.248989363E+00 5.635052891E-02 2.836911235E-02
 1.269566014E+00 5.584596093E-02 2.786138349E-02
 1.373003172E+00 6.240010054E-02 2.513986357E-02
 1.351303364E+00 7.204149296E-02 2.576036904E-02
 1.328178190E+00 7.493451365E-02 2.643581647E-02
 1.307917551E+00 5.417662905E-02 2.658420575E-02
 1.405709684E+00 6.399571184E-02 2.520828643E-02
 1.600000000E+00 0.000000000E+00 2.562961612E-02
 1.550979181E+00 -3.270768808E-05 2.591936484E-02
 1.511385226E+00 3.898221295E-02 2.661775228E-02
 1.433632175E+00 7.416468400E-02 2.609655428E-02
 1.474494489E+00 7.213525702E-02 2.704325795E-02
 1.200000000E+00 -9.999984741E-03 2.577430916E-02
 1.210724277E+00 -1.949596454E-06 2.615331981E-02
 1.288850065E+00 5.526984601E-02 2.725521841E-02
 1.210801396E+00 9.164896564E-03 2.646218304E-02
 1.211154489E+00 1.962011382E-02 2.686290488E-02
 1.222322322E+00 3.111775499E-02 2.745763111E-02
 1.235450332E+00 5.146777557E-02 2.835989242E-02
 1.252611646E+00 7.541961117E-02 2.910094385E-02
 1.270586836E+00 7.489373208E-02 2.852492823E-02
 1.308247619E+00 7.459550345E-02 2.713367745E-02
 1.352738475E+00 9.695080053E-02 2.646134644E-02
 1.325184380E+00 1.004443310E-01 2.737263395E-02
 1.407280919E+00 8.664577403E-02 2.588352228E-02
 1.378812997E+00 9.154289373E-02 2.592543083E-02
 1.545538209E+00 5.171893619E-02 2.710952839E-02
 1.600000000E+00 5.000000000E-02 2.708883423E-02
 1.511448995E+00 6.751066652E-02 2.755890129E-02
 1.440784140E+00 1.121768740E-01 2.749975194E-02
 1.476773204E+00 1.100281496E-01 2.840603700E-02
 1.200000000E+00 1.525878906E-08 2.603001501E-02
 1.289255985E+00 7.464309684E-02 2.784077665E-02
 1.211189755E+00 3.029936470E-02 2.732962567E-02
 1.200000000E+00 2.000001526E-02 2.677365267E-02
 1.200000000E+00 1.000001526E-02 2.636203053E-02
 1.222511158E+00 3.971074905E-02 2.790826608E-02
 1.236384903E+00 6.225190271E-02 2.892044635E-02
 1.223031967E+00 5.179529023E-02 2.847013923E-02
 1.237813826E+00 7.696919890E-02 2.954702778E-02
 1.252785182E+00 9.343834659E-02 2.986559948E-02
 1.270678249E+00 9.358874941E-02 2.925639859E-02
 1.307528336E+00 9.450321580E-02 2.780948518E-02
 1.355375073E+00 1.235396821E-01 2.743333425E-02
 1.329895772E+00 1.264614273E-01 2.821381939E-02
 1.382100654E+00 1.201196299E-01 2.697249839E-02
 1.410544384E+00 1.166774938E-01 2.698650666E-02
 1.553877641E+00 1.021345092E-01 2.952338780E-02
 1.600000000E+00 1.000000000E-01 2.975721055E-02
 1.514287551E+00 1.071991858E-01 2.915902837E-02
 1.477097263E+00 1.484691960E-01 2.991947559E-02
 1.442032078E+00 1.477792032E-01 2.888255207E-02
 1.289148449E+00 9.368005231E-02 2.851738520E-02
 1.211184913E+00 4.045263610E-02 2.784927051E-02
 1.200000000E+00 3.000000763E-02 2.725031793E-02
 1.223194453E+00 6.420878647E-02 2.913727076E-02
 1.210817070E+00 5.178825073E-02 2.845245915E-02
 1.237955246E+00 9.232523207E-02 3.029317730E-02
 1.224117723E+00 7.787881265E-02 2.985273383E-02
 1.249830209E+00 1.123921699E-01 3.076984290E-02
 1.270062404E+00 1.122674341E-01 2.998909007E-02
 1.307497685E+00 1.092003023E-01 2.842238413E-02
 1.356573963E+00 1.502979303E-01 2.851094826E-02
 1.330645218E+00 1.516128319E-01 2.916024099E-02
 1.308318734E+00 1.300397821E-01 2.908970067E-02
 1.411651072E+00 1.474937411E-01 2.825859611E-02
 1.383556386E+00 1.486335659E-01 2.815733940E-02
 1.555465803E+00 1.495986444E-01 3.193166236E-02
 1.600000000E+00 1.500000000E-01 3.246413625E-02
 1.514915459E+00 1.491027231E-01 3.098987706E-02
 1.438215852E+00 1.828487736E-01 3.010646639E-02
 1.474251996E+00 1.869625161E-01 3.114903610E-02
 1.288959290E+00 1.118138804E-01 2.920754996E-02
 1.200000000E+00 4.000000763E-02 2.778568345E-02
 1.209014623E+00 6.490670562E-02 2.922320827E-02
 1.200000000E+00 5.000000763E-02 2.839185607E-02
 1.236971481E+00 1.070627035E-01 3.099431198E-02
 1.224169582E+00 9.181251968E-02 3.060592385E-02
 1.211061591E+00 7.853647564E-02 3.004116955E-02
 1.270716490E+00 1.312473128E-01 3.064303052E-02
 1.252694177E+00 1.313892748E-01 3.137866073E-02
 1.306851450E+00 1.525118397E-01 2.985963297E-02
 1.329269621E+00 1.767561537E-01 3.008612333E-02
 1.356654475E+00 1.769861187E-01 2.956519895E-02
 1.288994820E+00 1.318928851E-01 2.989667337E-02
 1.383724054E+00 1.762569421E-01 2.929182795E-02
 1.410179425E+00 1.766140961E-01 2.944053480E-02
 1.552903700E+00 1.972002558E-01 3.341707538E-02
 1.600000000E+00 2.000000000E-01 3.399116459E-02
 1.512478788E+00 1.911932467E-01 3.230736253E-02
 1.468864887E+00 2.253720710E-01 3.201492080E-02
 1.426318918E+00 2.199935970E-01 3.112184389E-02
 1.200000000E+00 6.000000763E-02 2.897155745E-02
 1.236637804E+00 1.178030904E-01 3.154857557E-02
 1.223309353E+00 1.057036876E-01 3.132731960E-02
 1.211077243E+00 9.136201334E-02 3.078735600E-02
 1.200000000E+00 7.000000763E-02 2.949249491E-02
 1.200000000E+00 8.000000763E-02 3.011920681E-02
 1.236704289E+00 1.328808790E-01 3.204744874E-02
 1.253437625E+00 1.489259043E-01 3.190805027E-02
 1.271065346E+00 1.493823842E-01 3.120900831E-02
 1.300560602E+00 1.738057217E-01 3.079732929E-02
 1.287922233E+00 1.541864557E-01 3.066239356E-02
 1.329243826E+00 2.044859722E-01 3.089265648E-02
 1.357065422E+00 2.043607123E-01 3.050670964E-02
 1.384430117E+00 2.025920623E-01 3.030231142E-02
 1.406976153E+00 1.997332518E-01 3.023518794E-02
 1.543451725E+00 2.480991069E-01 3.378030368E-02
 1.600000000E+00 2.500000000E-01 3.427092910E-02
 1.507724215E+00 2.315486829E-01 3.293181060E-02
 1.466823718E+00 2.629948210E-01 3.258838855E-02
 1.427544683E+00 2.618997529E-01 3.207341168E-02
 1.222898939E+00 1.188479307E-01 3.196632534E-02
 1.209003562E+00 1.051102884E-01 3.160472048E-02
 1.200000000E+00 9.000000000E-02 3.083557037E-02
 1.220833492E+00 1.334127936E-01 3.262072963E-02
 1.236535842E+00 1.488567254E-01 3.254252798E-02
 1.272207015E+00 1.628381323E-01 3.156054403E-02
 1.253427776E+00 1.658144628E-01 3.232617011E-02
 1.302324973E+00 2.037233209E-01 3.143988703E-02
 1.328362739E+00 2.326858156E-01 3.152910102E-02
 1.357971233E+00 2.329835310E-01 3.127727393E-02
 1.389902570E+00 2.299348074E-01 3.117081972E-02
 1.550279022E+00 3.002991182E-01 3.373282225E-02
 1.600000000E+00 3.000000000E-01 3.396653328E-02
 1.506101461E+00 2.615303070E-01 3.322590363E-02
 1.426081984E+00 3.005046510E-01 3.248272911E-02
 1.464545830E+00 3.031646060E-01 3.283781611E-02
 1.390873118E+00 2.640602606E-01 3.184552195E-02
 1.210631214E+00 1.184857412E-01 3.227754867E-02
 1.200000000E+00 1.000000000E-01 3.145959946E-02
 1.223034827E+00 1.472617618E-01 3.302797518E-02
 1.210591777E+00 1.299904994E-01 3.279187847E-02
 1.232893682E+00 1.661909116E-01 3.311068670E-02
 1.276434734E+00 1.818508385E-01 3.179316127E-02
 1.255190155E+00 1.851282146E-01 3.259704680E-02
 1.301708942E+00 2.307188160E-01 3.191298669E-02
 1.277806798E+00 2.054973152E-01 3.210873284E-02
 1.356539867E+00 2.645825982E-01 3.186456316E-02
 1.324471462E+00 2.622456928E-01 3.201009839E-02
 1.506286403E+00 3.035198081E-01 3.327540612E-02
 1.551063359E+00 3.496448209E-01 3.342473329E-02
 1.600000000E+00 3.500000000E-01 3.356435086E-02
 1.422529247E+00 3.369000889E-01 3.265515324E-02
 1.458585324E+00 3.454605164E-01 3.287010330E-02
 1.389359610E+00 2.996729058E-01 3.228866606E-02
 1.200000000E+00 1.100000000E-01 3.193819446E-02
 1.200000000E+00 1.200000076E-01 3.242318348E-02
 1.210783709E+00 1.380648645E-01 3.315520697E-02
 1.211709567E+00 1.488561649E-01 3.344967075E-02