TITLE     = "fluent21.1.0  build-id: 10179"
VARIABLES = "X"
"Y"
"Velocity Magnitude"
DATASETAUXDATA CFDA.ID1="Pressure"
DATASETAUXDATA CFDA.ID2="Density"
DATASETAUXDATA Common.DensityVar="12"
DATASETAUXDATA Common.PressureVar="3"
DATASETAUXDATA Common.UVar="5"
DATASETAUXDATA Common.VectorVarsAreVelocity="TRUE"
DATASETAUXDATA Common.ViscosityVar="14"
DATASETAUXDATA Common.VVar="7"
ZONE T="sur_out"
 STRANDID=1, SOLUTIONTIME=67.25
 Nodes=3645, Elements=3561, ZONETYPE=FEQuadrilateral
 DATAPACKING=POINT
 FACENEIGHBORCONNECTIONS=420
 FACENEIGHBORMODE=GLOBALONETOMANY
 DT=(DOUBLE DOUBLE DOUBLE )
 9.800000000E-01 -1.499999695E-01 3.118960426E-02
 9.848922573E-01 -1.592536950E-01 3.121581061E-02
 9.716137399E-01 -1.610950442E-01 3.117186628E-02
 9.700000000E-01 -1.499999695E-01 3.115505367E-02
 9.900000000E-01 -1.499999695E-01 3.122193599E-02
 9.844187159E-01 -1.737998713E-01 3.124202579E-02
 9.710235029E-01 -1.735375376E-01 3.120229427E-02
 9.983364284E-01 -1.613115469E-01 3.126833990E-02
 1.000000000E+00 -1.499999695E-01 3.126219263E-02
 9.983397345E-01 -1.742551693E-01 3.128551902E-02
 9.664596712E-01 -1.855372630E-01 3.122141464E-02
 9.833260674E-01 -1.880699545E-01 3.126735847E-02
 1.010051393E+00 -1.616764781E-01 3.130983656E-02
 1.010000000E+00 -1.499999695E-01 3.130434431E-02
 1.011199641E+00 -1.737185131E-01 3.132245597E-02
 9.993782330E-01 -1.881456019E-01 3.130728463E-02
 9.828825642E-01 -2.046390800E-01 3.129674319E-02
 9.668813886E-01 -2.041200589E-01 3.126828548E-02
 1.020000000E+00 -1.499999695E-01 3.134367328E-02
 1.020622692E+00 -1.616086685E-01 3.134726512E-02
 1.016173878E+00 -1.853463946E-01 3.134761925E-02
 1.020233559E+00 -1.735960104E-01 3.135317842E-02
 9.996054517E-01 -2.048024578E-01 3.132912744E-02
 9.815895196E-01 -2.213614293E-01 3.132581490E-02
 9.685570950E-01 -2.213401947E-01 3.130897717E-02
 1.030000000E+00 -1.499999695E-01 3.138270016E-02
 1.032169937E+00 -1.610900711E-01 3.138552556E-02
 1.016744298E+00 -2.040925117E-01 3.136201564E-02
 1.032912106E+00 -1.736653216E-01 3.138899457E-02
 9.992910245E-01 -2.221047175E-01 3.135048710E-02
 9.756273949E-01 -2.373617250E-01 3.134948459E-02
 1.040000000E+00 -1.499999695E-01 3.141785227E-02
 1.045114628E+00 -1.590086361E-01 3.142927285E-02
 1.033265806E+00 -1.870865293E-01 3.139085668E-02
 1.017416959E+00 -2.218971282E-01 3.137673802E-02
 1.033662296E+00 -2.040728278E-01 3.139461849E-02
 1.045937816E+00 -1.727914685E-01 3.142483018E-02
 9.985327983E-01 -2.402789198E-01 3.137047867E-02
 1.050000000E+00 -1.499999695E-01 3.144587104E-02
 1.050233938E+00 -1.850747144E-01 3.143230422E-02
 1.034993406E+00 -2.210159044E-01 3.140049969E-02
 1.018567410E+00 -2.401695756E-01 3.138946315E-02
 1.049529382E+00 -2.038224278E-01 3.142552829E-02
 1.055472723E+00 -1.733672214E-01 3.145362884E-02
 1.057437524E+00 -1.610852910E-01 3.146732316E-02
 1.000627150E+00 -2.613049857E-01 3.139277513E-02
 9.773085229E-01 -2.622297408E-01 3.139045799E-02
 1.060000000E+00 -1.499999695E-01 3.147531607E-02
 1.041074334E+00 -2.369678404E-01 3.141165276E-02
 1.047781505E+00 -2.210136085E-01 3.142122570E-02
 1.017155969E+00 -2.611881674E-01 3.140056612E-02
 1.066926723E+00 -1.882063995E-01 3.146749774E-02
 1.066331260E+00 -2.048507278E-01 3.145474033E-02
 1.069137140E+00 -1.618931851E-01 3.149939192E-02
 1.068281615E+00 -1.745174118E-01 3.148281217E-02
 1.009533852E+00 -2.811661627E-01 3.141229354E-02
 9.804534319E-01 -2.863888876E-01 3.142191447E-02
 1.070000000E+00 -1.499999695E-01 3.150782007E-02
 1.039866733E+00 -2.617011538E-01 3.141316930E-02
 1.065528897E+00 -2.222482613E-01 3.144398700E-02
 1.082807145E+00 -1.881893719E-01 3.149908359E-02
 1.083243592E+00 -2.048443897E-01 3.148336372E-02
 1.080805141E+00 -1.618902319E-01 3.153019629E-02
 1.081565077E+00 -1.745032500E-01 3.151429898E-02
 1.012356823E+00 -3.115213046E-01 3.142988220E-02
 9.831312867E-01 -3.144958131E-01 3.145094187E-02
 1.080000000E+00 -1.499999695E-01 3.153830940E-02
 1.064082293E+00 -2.407146395E-01 3.143397461E-02
 1.064088385E+00 -2.627646382E-01 3.142691301E-02
 1.037075888E+00 -2.854274682E-01 3.141471237E-02
 1.083864031E+00 -2.222033160E-01 3.146821396E-02
 1.099486486E+00 -1.850944388E-01 3.153327328E-02
 1.099910236E+00 -2.038713121E-01 3.150830015E-02
 1.094365329E+00 -1.733720081E-01 3.154305270E-02
 1.092502972E+00 -1.610862215E-01 3.155924595E-02
 1.022841537E+00 -3.375099004E-01 3.145256894E-02
 9.868071138E-01 -3.436345611E-01 3.149489631E-02
 1.033920782E+00 -3.123679350E-01 3.142021883E-02
 1.090000000E+00 -1.499999695E-01 3.156704928E-02
 1.085547599E+00 -2.405231215E-01 3.145399804E-02
 1.087340913E+00 -2.618505698E-01 3.144079496E-02
 1.064981623E+00 -2.863227954E-01 3.142041458E-02
 1.101130245E+00 -2.211136646E-01 3.148906077E-02
 1.115757568E+00 -2.042031502E-01 3.152861815E-02
 1.116444294E+00 -1.871490466E-01 3.155596896E-02
 1.103906780E+00 -1.728041222E-01 3.156457244E-02
 1.104836161E+00 -1.590111686E-01 3.159102459E-02
 1.021183783E+00 -3.760787075E-01 3.148025965E-02
 9.869527790E-01 -3.766223339E-01 3.153505839E-02
 1.063403816E+00 -3.144412140E-01 3.141896665E-02
 1.100000000E+00 -1.499999695E-01 3.159308530E-02
 1.106881150E+00 -2.371360624E-01 3.147522041E-02
 1.104335385E+00 -2.613591635E-01 3.144980898E-02
 1.095341859E+00 -2.823295914E-01 3.142885644E-02
 1.113865562E+00 -2.212439679E-01 3.150308170E-02
 1.116938063E+00 -1.736948971E-01 3.158306954E-02
 1.132815920E+00 -2.043440398E-01 3.154544990E-02
 1.133612890E+00 -1.854573840E-01 3.158124766E-02
 1.117773430E+00 -1.610986654E-01 3.161133384E-02
 1.059939183E+00 -3.439469938E-01 3.143568658E-02
 1.016345184E+00 -4.113899500E-01 3.134809804E-02
 9.867114171E-01 -4.098558494E-01 3.142416382E-02
 1.058659910E+00 -3.782157546E-01 3.143578394E-02
 1.094795505E+00 -3.145426680E-01 3.141592362E-02
 1.110000000E+00 -1.499999695E-01 3.161073609E-02
 1.127756127E+00 -2.637398129E-01 3.145570152E-02
 1.129522491E+00 -2.412843810E-01 3.148485786E-02
 1.131687493E+00 -2.224391680E-01 3.151452526E-02
 1.129638257E+00 -1.736485226E-01 3.160241630E-02
 1.150230418E+00 -2.051162054E-01 3.155874297E-02
 1.150499395E+00 -1.882933044E-01 3.159218755E-02
 1.120000000E+00 -1.499999695E-01 3.162588023E-02
 1.129327418E+00 -1.616266773E-01 3.162917001E-02
 1.094861358E+00 -3.454273222E-01 3.142000904E-02
 1.000655724E+00 -4.453158168E-01 3.104108541E-02
 1.056847931E+00 -4.142106228E-01 3.125343487E-02
 1.096716176E+00 -3.782292088E-01 3.140442049E-02
 1.125255870E+00 -2.875727602E-01 3.142969681E-02
 1.125638385E+00 -3.154065442E-01 3.141220365E-02
 1.151766799E+00 -2.416472456E-01 3.149525860E-02
 1.151917607E+00 -2.644260424E-01 3.146233340E-02
 1.150555499E+00 -2.227815862E-01 3.152680081E-02
 1.138686372E+00 -1.737821869E-01 3.161509943E-02
 1.167095301E+00 -2.049300419E-01 3.156937056E-02
 1.166640853E+00 -1.881764494E-01 3.160374826E-02
 1.151584490E+00 -1.743234836E-01 3.162553688E-02
 1.130000000E+00 -1.499999695E-01 3.164363346E-02
 1.139909851E+00 -1.616993572E-01 3.164373922E-02
 1.128054094E+00 -3.445429921E-01 3.140720607E-02
 1.051963525E+00 -4.537702264E-01 3.088660546E-02
 1.100448762E+00 -4.133041887E-01 3.120989390E-02
 1.133006440E+00 -3.752730060E-01 3.138959840E-02
 1.152286078E+00 -2.886623079E-01 3.143192920E-02
 1.154501610E+00 -3.145968655E-01 3.140984570E-02
 1.175072661E+00 -2.380518194E-01 3.150785590E-02
 1.175872033E+00 -2.634051138E-01 3.146659780E-02
 1.168545595E+00 -2.219078943E-01 3.153757680E-02
 1.165552831E+00 -1.738297688E-01 3.163750457E-02
 1.183028520E+00 -2.044457675E-01 3.157567867E-02
 1.183490904E+00 -1.856101349E-01 3.161715553E-02
 1.151641450E+00 -1.613330053E-01 3.165704630E-02
 1.140000000E+00 -1.499999695E-01 3.165864414E-02
 1.158759274E+00 -3.418150085E-01 3.139795642E-02
 1.100399912E+00 -4.552733900E-01 3.085308930E-02
 1.050000000E+00 -5.000000000E-01 3.068836092E-02
 1.000000000E+00 -5.000000000E-01 3.073576982E-02
 1.147907489E+00 -4.050819153E-01 3.122911110E-02
 1.159348002E+00 -3.732379079E-01 3.137405693E-02
 1.181365030E+00 -3.119792214E-01 3.140845473E-02
 1.177469746E+00 -2.877829475E-01 3.143293877E-02
 1.197733932E+00 -2.414135583E-01 3.150397744E-02
 1.199011059E+00 -2.631488073E-01 3.146709070E-02
 1.181458919E+00 -2.218681297E-01 3.154153300E-02
 1.178923151E+00 -1.735406110E-01 3.164693987E-02
 1.165098254E+00 -1.592588202E-01 3.167435466E-02
 1.200145781E+00 -2.053367669E-01 3.157680978E-02
 1.200628640E+00 -1.882138239E-01 3.161443341E-02
 1.150000000E+00 -1.499999695E-01 3.167192269E-02
 1.193203628E+00 -3.344623711E-01 3.139036764E-02
 1.100000000E+00 -5.000000000E-01 3.066944443E-02
 1.149254346E+00 -4.536970090E-01 3.085028172E-02
 1.197809781E+00 -3.702839722E-01 3.135315219E-02
 1.200285133E+00 -3.110747014E-01 3.140454221E-02
 1.200359926E+00 -2.868726543E-01 3.143183549E-02
 1.199197208E+00 -2.230512058E-01 3.154001524E-02
 1.217555883E+00 -2.413146796E-01 3.150350961E-02
 1.221961020E+00 -2.606383780E-01 3.146697375E-02
 1.188311478E+00 -1.736318395E-01 3.165012189E-02
 1.178337393E+00 -1.610907009E-01 3.167768009E-02
 1.160000000E+00 -1.499999695E-01 3.168565772E-02
 1.201489354E+00 -1.738255933E-01 3.164985931E-02
 1.217755271E+00 -2.056393390E-01 3.157539704E-02
 1.217484387E+00 -1.880378921E-01 3.161490159E-02
 1.150000000E+00 -5.000000000E-01 3.066702403E-02
 1.197626729E+00 -4.091578427E-01 3.117254895E-02
 1.198794652E+00 -4.540558880E-01 3.084515337E-02
 1.227844520E+00 -3.360201221E-01 3.137846737E-02
 1.241121511E+00 -3.633151814E-01 3.134280208E-02
 1.226181157E+00 -3.102102684E-01 3.139816125E-02
 1.224581716E+00 -2.849485600E-01 3.142968341E-02
 1.217397501E+00 -2.235836463E-01 3.153873880E-02
 1.233080811E+00 -2.395787495E-01 3.150453775E-02
 1.246650166E+00 -2.531168366E-01 3.147476163E-02
 1.189377927E+00 -1.615313082E-01 3.168079438E-02
 1.170000000E+00 -1.499999695E-01 3.169229422E-02
 1.180000000E+00 -1.499999695E-01 3.169364300E-02
 1.200929522E+00 -1.613664272E-01 3.168286806E-02
 1.216200337E+00 -1.720115854E-01 3.165255999E-02
 1.235970011E+00 -2.055955020E-01 3.157061158E-02
 1.235382386E+00 -1.862393431E-01 3.161346361E-02
 1.200000000E+00 -5.000000000E-01 3.066988817E-02
 1.246059916E+00 -4.064727843E-01 3.116316072E-02
 1.248329222E+00 -4.530442975E-01 3.084852918E-02
 1.250871786E+00 -3.360926673E-01 3.136872308E-02
 1.251982826E+00 -3.084644819E-01 3.139058228E-02
 1.249714351E+00 -2.817292447E-01 3.142579189E-02
 1.235036384E+00 -2.243047324E-01 3.153185536E-02
 1.253623546E+00 -2.284130968E-01 3.151818093E-02
 1.190000000E+00 -1.499999695E-01 3.169676218E-02
 1.212938254E+00 -1.600298976E-01 3.168594611E-02
 1.199999988E+00 -1.499999762E-01 3.170955599E-02
 1.232889354E+00 -1.661529585E-01 3.166331797E-02
 1.255679771E+00 -2.061657539E-01 3.156127640E-02
 1.255220811E+00 -1.850516130E-01 3.160682700E-02
 1.250000000E+00 -5.000000000E-01 3.067844643E-02
 1.297108723E+00 -3.998765363E-01 3.118011539E-02
 1.298438804E+00 -4.514649641E-01 3.085416112E-02
 1.282918700E+00 -3.666694765E-01 3.132522759E-02
 1.282396201E+00 -3.354743188E-01 3.135721385E-02
 1.275406730E+00 -2.797204147E-01 3.141843254E-02
 1.280962038E+00 -3.048866989E-01 3.138197660E-02
 1.274606118E+00 -2.547848815E-01 3.145997757E-02
 1.276991368E+00 -2.298603804E-01 3.150308094E-02
 1.222947223E+00 -1.578115694E-01 3.168991784E-02
 1.211693653E+00 -1.488525539E-01 3.171741859E-02
 1.253417301E+00 -1.657890145E-01 3.165169283E-02
 1.277872707E+00 -2.054215006E-01 3.154957969E-02
 1.276450853E+00 -1.817888279E-01 3.159842060E-02
 1.300000000E+00 -5.000000000E-01 3.068892492E-02
 1.347128132E+00 -4.070835262E-01 3.112127110E-02
 1.348266969E+00 -4.526190837E-01 3.084949000E-02
 1.310998062E+00 -3.676919305E-01 3.130623767E-02
 1.314678295E+00 -3.335791621E-01 3.134273641E-02
 1.296204872E+00 -2.771482370E-01 3.141276218E-02
 1.313888052E+00 -2.954361171E-01 3.137855952E-02
 1.299319835E+00 -2.562881791E-01 3.144235733E-02
 1.301800466E+00 -2.306911719E-01 3.148507272E-02
 1.223014062E+00 -1.472518522E-01 3.171653805E-02
 1.236517240E+00 -1.488358255E-01 3.170718895E-02
 1.200000000E+00 -1.399999695E-01 3.174466263E-02
 1.210771662E+00 -1.380622634E-01 3.174582621E-02
 1.272194647E+00 -1.627938533E-01 3.164270755E-02
 1.253418784E+00 -1.489002186E-01 3.169439532E-02
 1.300544446E+00 -1.737654749E-01 3.159088192E-02
 1.302363450E+00 -2.036678324E-01 3.153317593E-02
 1.350000000E+00 -5.000000000E-01 3.069943893E-02
 1.397427828E+00 -4.516042659E-01 3.085725882E-02
 1.393785680E+00 -4.051771003E-01 3.111240691E-02
 1.349174715E+00 -3.699374185E-01 3.127758496E-02
 1.351176042E+00 -3.346842753E-01 3.132295518E-02
 1.324590977E+00 -2.623266998E-01 3.141778742E-02
 1.328439881E+00 -2.326984266E-01 3.146182903E-02
 1.220813384E+00 -1.334072372E-01 3.175526671E-02
 1.236687350E+00 -1.328649908E-01 3.174708877E-02
 1.210579613E+00 -1.299892931E-01 3.177016994E-02
 1.200000000E+00 -1.299999695E-01 3.177157476E-02
 1.287891839E+00 -1.541448618E-01 3.164921310E-02
 1.271044165E+00 -1.493456554E-01 3.167941487E-02
 1.252677881E+00 -1.313678660E-01 3.173540509E-02
 1.329253927E+00 -2.044579298E-01 3.150872521E-02
 1.329218103E+00 -1.767407174E-01 3.155487334E-02
 1.352871384E+00 -2.988704471E-01 3.135189819E-02
 1.400000000E+00 -5.000000000E-01 3.071567365E-02
 1.387124332E+00 -3.692897717E-01 3.125919111E-02
 1.447516805E+00 -4.483044856E-01 3.087437523E-02
 1.443365088E+00 -3.925891761E-01 3.114431228E-02
 1.387642433E+00 -3.353208261E-01 3.130221969E-02
 1.356659767E+00 -2.647303612E-01 3.139197607E-02
 1.358038726E+00 -2.330336319E-01 3.143644910E-02
 1.222863778E+00 -1.188423017E-01 3.178379756E-02
 1.236620461E+00 -1.177881350E-01 3.177585696E-02
 1.200000000E+00 -1.199999695E-01 3.179232168E-02
 1.210617818E+00 -1.184823104E-01 3.179006292E-02
 1.306797984E+00 -1.524851352E-01 3.162830727E-02
 1.270692245E+00 -1.312220600E-01 3.171600188E-02
 1.249816167E+00 -1.123782149E-01 3.175974799E-02
 1.330550835E+00 -1.516090686E-01 3.159819318E-02
 1.357047800E+00 -2.043575406E-01 3.148085349E-02
 1.356552403E+00 -1.770075265E-01 3.152309135E-02
 1.389436780E+00 -2.998378688E-01 3.132881215E-02
 1.450000000E+00 -5.000000000E-01 3.073301846E-02
 1.417688875E+00 -3.662969315E-01 3.125333311E-02
 1.499131819E+00 -4.488365179E-01 3.087831557E-02
 1.499112105E+00 -3.974552681E-01 3.110645918E-02
 1.422577205E+00 -3.370118466E-01 3.127969315E-02
 1.390899205E+00 -2.641631214E-01 3.136772244E-02
 1.389896523E+00 -2.299906891E-01 3.141208926E-02
 1.236960129E+00 -1.070450284E-01 3.177440118E-02
 1.223291376E+00 -1.056911973E-01 3.178115807E-02
 1.200000000E+00 -1.099999695E-01 3.179874176E-02
 1.208996602E+00 -1.051047223E-01 3.178613861E-02
 1.288949116E+00 -1.318582894E-01 3.169134094E-02
 1.308258837E+00 -1.300397109E-01 3.166548844E-02
 1.270041457E+00 -1.122622816E-01 3.173529420E-02
 1.329802477E+00 -1.264889816E-01 3.163421042E-02
 1.356431653E+00 -1.503186002E-01 3.156438063E-02
 1.383588272E+00 -1.762682289E-01 3.149203463E-02
 1.384365619E+00 -2.026179388E-01 3.145451674E-02
 1.426125544E+00 -3.006203566E-01 3.130633729E-02
 1.500000000E+00 -5.000000000E-01 3.074586719E-02
 1.458604408E+00 -3.455116940E-01 3.125110746E-02
 1.503818348E+00 -3.490806727E-01 3.122513643E-02
 1.549816649E+00 -4.495194326E-01 3.087865192E-02
 1.550035826E+00 -3.991730445E-01 3.108802153E-02
 1.427567302E+00 -2.620091083E-01 3.134269538E-02
 1.426275901E+00 -2.200569350E-01 3.139201413E-02
 1.224161815E+00 -9.178975249E-02 3.170708264E-02
 1.237951530E+00 -9.230544640E-02 3.170240277E-02
 1.200000000E+00 -9.999998474E-02 3.178110757E-02
 1.288917589E+00 -1.118301128E-01 3.170987330E-02
 1.307446016E+00 -1.092338107E-01 3.168321963E-02
 1.252780907E+00 -9.342776338E-02 3.169174374E-02
 1.270670280E+00 -9.359379713E-02 3.167486044E-02
 1.325117921E+00 -1.005119368E-01 3.161624104E-02
 1.355220307E+00 -1.235841808E-01 3.159359897E-02
 1.383396151E+00 -1.486749011E-01 3.152803583E-02
 1.410032272E+00 -1.766814203E-01 3.145781777E-02
 1.406891264E+00 -1.997854314E-01 3.143618852E-02
 1.464559654E+00 -3.032234193E-01 3.128234156E-02
 1.550000000E+00 -5.000000000E-01 3.076126667E-02
 1.506284368E+00 -3.035429834E-01 3.126128474E-02
 1.551060805E+00 -3.496486829E-01 3.120354823E-02
 1.600000000E+00 -4.000000000E-01 3.108031464E-02
 1.600000000E+00 -4.500000000E-01 3.088083864E-02
 1.466818453E+00 -2.630500159E-01 3.131451224E-02
 1.468823833E+00 -2.254138062E-01 3.134883662E-02
 1.211073818E+00 -9.135014956E-02 3.170587503E-02
 1.224118523E+00 -7.784962669E-02 3.147462345E-02
 1.237817199E+00 -7.694664289E-02 3.145011307E-02
 1.200000000E+00 -8.999998474E-02 3.170382917E-02
 1.289125693E+00 -9.371466656E-02 3.165399500E-02
 1.307489718E+00 -9.455348214E-02 3.163212596E-02
 1.252616101E+00 -7.540865344E-02 3.140948149E-02
 1.270590635E+00 -7.490373087E-02 3.139262396E-02
 1.352617431E+00 -9.707780073E-02 3.154462835E-02
 1.381946856E+00 -1.202030229E-01 3.154454075E-02
 1.411486788E+00 -1.475610773E-01 3.148886720E-02
 1.438125520E+00 -1.829313169E-01 3.141884113E-02
 1.506088259E+00 -2.615584551E-01 3.128964630E-02
 1.550273072E+00 -3.003052296E-01 3.123961445E-02
 1.600000000E+00 -3.500000000E-01 3.119234262E-02
 1.474177916E+00 -1.870113483E-01 3.137757342E-02
 1.507695579E+00 -2.315773540E-01 3.131632261E-02
 1.211061947E+00 -7.852304663E-02 3.148679780E-02
 1.236394068E+00 -6.223476328E-02 3.098088193E-02
 1.223204724E+00 -6.418232656E-02 3.100079947E-02
 1.200000000E+00 -7.999998474E-02 3.149853990E-02
 1.289253398E+00 -7.468592377E-02 3.138908067E-02
 1.308229489E+00 -7.466088765E-02 3.137654735E-02
 1.248997978E+00 -5.634823231E-02 3.062732965E-02
 1.269574329E+00 -5.586623393E-02 3.067807579E-02
 1.328139558E+00 -7.503458425E-02 3.135200563E-02
 1.351235763E+00 -7.220195003E-02 3.130733445E-02
 1.378700724E+00 -9.168541987E-02 3.146444784E-02
 1.410362267E+00 -1.167677040E-01 3.149043866E-02
 1.441906786E+00 -1.478570979E-01 3.144599115E-02
 1.543437062E+00 -2.481116956E-01 3.127487649E-02
 1.600000000E+00 -3.000000000E-01 3.122614720E-02
 1.477000034E+00 -1.485295896E-01 3.140046835E-02
 1.512433162E+00 -1.912254591E-01 3.134081885E-02
 1.209018930E+00 -6.489697625E-02 3.097649419E-02
 1.235464751E+00 -5.145524345E-02 3.027831943E-02
 1.223065621E+00 -5.177720932E-02 3.025510038E-02
 1.200000000E+00 -6.999998474E-02 3.118093809E-02
 1.288860626E+00 -5.531932375E-02 3.070836383E-02
 1.307914377E+00 -5.424949984E-02 3.067881832E-02
 1.269756457E+00 -3.688704086E-02 2.949421700E-02
 1.250940640E+00 -3.677626744E-02 2.931954914E-02
 1.327770690E+00 -5.256348019E-02 3.062213184E-02
 1.350945839E+00 -5.387956402E-02 3.065824918E-02
 1.372949304E+00 -6.257459635E-02 3.094419205E-02
 1.407157829E+00 -8.682004772E-02 3.139843668E-02
 1.440656879E+00 -1.122855518E-01 3.142810709E-02
 1.600000000E+00 -2.500000000E-01 3.125148050E-02
 1.514859522E+00 -1.491465667E-01 3.135898434E-02
 1.476646286E+00 -1.101128611E-01 3.136155905E-02
 1.552882057E+00 -1.972147958E-01 3.130175859E-02
 1.210827977E+00 -5.177952331E-02 3.018080013E-02
 1.222523657E+00 -3.970364802E-02 2.938340582E-02
 1.233212580E+00 -3.545825738E-02 2.909302398E-02
 1.200000000E+00 -6.000000000E-02 3.076495516E-02
 1.288491427E+00 -3.636794775E-02 2.959247533E-02
 1.306734568E+00 -3.442873131E-02 2.962078522E-02
 1.251638552E+00 -1.838685733E-02 2.809029214E-02
 1.269942984E+00 -1.851701520E-02 2.826598822E-02
 1.323938300E+00 -2.702875090E-02 2.920838792E-02
 1.351498812E+00 -2.799475607E-02 2.939740006E-02
 1.405645947E+00 -6.420773890E-02 3.095249313E-02
 1.433556811E+00 -7.433275936E-02 3.109827575E-02
 1.600000000E+00 -2.000000000E-01 3.127822142E-02
 1.555441416E+00 -1.496221403E-01 3.131544661E-02
 1.514228734E+00 -1.072672392E-01 3.128334211E-02
 1.474437125E+00 -7.227822930E-02 3.100975060E-02
 1.200000000E+00 -4.999998474E-02 3.010337397E-02
 1.211190839E+00 -4.044847366E-02 2.929397505E-02
 1.222327996E+00 -3.111674072E-02 2.854845246E-02
 1.288425483E+00 -1.875827123E-02 2.841666265E-02
 1.306594170E+00 -2.006872676E-02 2.858267073E-02
 1.234522844E+00 -1.821906524E-02 2.791157955E-02
 1.251008985E+00 -1.097445627E-05 2.759008825E-02
 1.269886067E+00 -1.781740475E-05 2.770200684E-02
 1.378218246E+00 -3.089830895E-02 2.962162514E-02
 1.326976683E+00 -4.779004451E-05 2.820267685E-02
 1.352537358E+00 -7.356960876E-05 2.839748089E-02
 1.408495408E+00 -3.286134863E-02 2.981159664E-02
 1.600000000E+00 -1.500000000E-01 3.129033810E-02
 1.553854741E+00 -1.021740673E-01 3.119222298E-02
 1.511416728E+00 -6.761027193E-02 3.092032193E-02
 1.439886277E+00 -3.607222905E-02 2.995874304E-02
 1.475686564E+00 -3.691602591E-02 3.003009180E-02
 1.200000000E+00 -3.999998474E-02 2.922432208E-02
 1.211192295E+00 -3.029889859E-02 2.840301706E-02
 1.222383452E+00 -1.900615888E-02 2.776422759E-02
 1.288515628E+00 -2.621027817E-05 2.781443242E-02
 1.307216195E+00 -3.357713739E-05 2.798961565E-02
 1.229610158E+00 2.341857905E-04 2.743962081E-02
 1.251636151E+00 1.836870873E-02 2.814085238E-02
 1.269935241E+00 1.848228870E-02 2.816262682E-02
 1.379797983E+00 -9.632294136E-05 2.859948166E-02
 1.351470482E+00 2.783276228E-02 2.886468392E-02
 1.323932053E+00 2.692830982E-02 2.872772964E-02
 1.409738049E+00 -1.132893677E-04 2.880424876E-02
 1.600000000E+00 -1.000000000E-01 3.114718298E-02
 1.545526578E+00 -5.178382583E-02 3.044157352E-02
 1.511382241E+00 -3.910208220E-02 3.008734089E-02
 1.476544747E+00 -9.243838485E-05 2.917209466E-02
 1.441650961E+00 -1.069973836E-04 2.900267610E-02
 1.200000000E+00 -2.999998474E-02 2.833586934E-02
 1.211154639E+00 -1.962276594E-02 2.765244011E-02
 1.221224785E+00 -7.046096442E-03 2.729072240E-02
 1.288405837E+00 1.869907806E-02 2.818329660E-02
 1.306585525E+00 1.999446807E-02 2.823652123E-02
 1.234521760E+00 1.821047799E-02 2.813067425E-02
 1.250933917E+00 3.676739418E-02 2.929515003E-02
 1.269746154E+00 3.685841572E-02 2.928092749E-02
 1.378217508E+00 3.070514641E-02 2.907204386E-02
 1.350972308E+00 5.371525776E-02 3.008753209E-02
 1.327784505E+00 5.245710523E-02 3.007612565E-02
 1.408469629E+00 3.262877590E-02 2.929229123E-02
 1.600000000E+00 -5.000000000E-02 3.039960463E-02
 1.512669199E+00 -6.330405099E-05 2.939685221E-02
 1.439891644E+00 3.586980305E-02 2.951153896E-02
 1.475659090E+00 3.673478418E-02 2.967126925E-02
 1.200000000E+00 -1.999998474E-02 2.760213752E-02
 1.210801369E+00 -9.168473943E-03 2.723337969E-02
 1.220221304E+00 5.639762474E-05 2.725128319E-02
 1.288474868E+00 3.631234574E-02 2.922441128E-02
 1.306727499E+00 3.435293817E-02 2.913420902E-02
 1.221732506E+00 7.235208221E-03 2.750855254E-02
 1.222382768E+00 1.900107353E-02 2.815855411E-02
 1.233205608E+00 3.545983268E-02 2.929468669E-02
 1.248989363E+00 5.635052891E-02 3.040334983E-02
 1.269566014E+00 5.584596093E-02 3.034102817E-02
 1.373003172E+00 6.240010054E-02 3.045872640E-02
 1.351303364E+00 7.204149296E-02 3.089039820E-02
 1.328178190E+00 7.493451365E-02 3.092593608E-02
 1.307917551E+00 5.417662905E-02 3.018552431E-02
 1.405709684E+00 6.399571184E-02 3.051726619E-02
 1.600000000E+00 0.000000000E+00 2.974774817E-02
 1.550979181E+00 -3.270768808E-05 2.964667160E-02
 1.511385226E+00 3.898221295E-02 2.981674012E-02
 1.433632175E+00 7.416468400E-02 3.081298153E-02
 1.474494489E+00 7.213525702E-02 3.080150292E-02
 1.200000000E+00 -9.999984741E-03 2.719860239E-02
 1.210724277E+00 -1.949596454E-06 2.722364304E-02
 1.288850065E+00 5.526984601E-02 3.028297515E-02
 1.210801396E+00 9.164896564E-03 2.756563327E-02
 1.211154489E+00 1.962011382E-02 2.821634414E-02
 1.222322322E+00 3.111775499E-02 2.898531031E-02
 1.235450332E+00 5.146777557E-02 3.023299331E-02
 1.252611646E+00 7.541961117E-02 3.099667673E-02
 1.270586836E+00 7.489373208E-02 3.096558662E-02
 1.308247619E+00 7.459550345E-02 3.093955396E-02
 1.352738475E+00 9.695080053E-02 3.124745866E-02
 1.325184380E+00 1.004443310E-01 3.127260918E-02
 1.407280919E+00 8.664577403E-02 3.117268726E-02
 1.378812997E+00 9.154289373E-02 3.120285193E-02
 1.545538209E+00 5.171893619E-02 3.032088461E-02
 1.600000000E+00 5.000000000E-02 3.035068017E-02
 1.511448995E+00 6.751066652E-02 3.076884712E-02
 1.440784140E+00 1.121768740E-01 3.133948040E-02
 1.476773204E+00 1.100281496E-01 3.132202801E-02
 1.200000000E+00 1.525878906E-08 2.720499808E-02
 1.289255985E+00 7.464309684E-02 3.095176288E-02
 1.211189755E+00 3.029936470E-02 2.900854928E-02
 1.200000000E+00 2.000001526E-02 2.824784231E-02
 1.200000000E+00 1.000001526E-02 2.758396322E-02
 1.222511158E+00 3.971074905E-02 2.968615912E-02
 1.236384903E+00 6.225190271E-02 3.073289364E-02
 1.223031967E+00 5.179529023E-02 3.031003582E-02
 1.237813826E+00 7.696919890E-02 3.104372575E-02
 1.252785182E+00 9.343834659E-02 3.122237554E-02
 1.270678249E+00 9.358874941E-02 3.122384227E-02
 1.307528336E+00 9.450321580E-02 3.123595049E-02
 1.355375073E+00 1.235396821E-01 3.135819179E-02
 1.329895772E+00 1.264614273E-01 3.134949807E-02
 1.382100654E+00 1.201196299E-01 3.136394186E-02
 1.410544384E+00 1.166774938E-01 3.135781735E-02
 1.553877641E+00 1.021345092E-01 3.120493890E-02
 1.600000000E+00 1.000000000E-01 3.117606315E-02
 1.514287551E+00 1.071991858E-01 3.127404562E-02
 1.477097263E+00 1.484691960E-01 3.138161030E-02
 1.442032078E+00 1.477792032E-01 3.138336965E-02
 1.289148449E+00 9.368005231E-02 3.122807134E-02
 1.211184913E+00 4.045263610E-02 2.974304800E-02
 1.200000000E+00 3.000000763E-02 2.902902398E-02
 1.223194453E+00 6.420878647E-02 3.079468505E-02
 1.210817070E+00 5.178825073E-02 3.035438672E-02
 1.237955246E+00 9.232523207E-02 3.122175920E-02
 1.224117723E+00 7.787881265E-02 3.107806813E-02
 1.249830209E+00 1.123921699E-01 3.130262139E-02
 1.270062404E+00 1.122674341E-01 3.130652336E-02
 1.307497685E+00 1.092003023E-01 3.131717368E-02
 1.356573963E+00 1.502979303E-01 3.136304293E-02
 1.330645218E+00 1.516128319E-01 3.135469846E-02
 1.308318734E+00 1.300397821E-01 3.134251511E-02
 1.411651072E+00 1.474937411E-01 3.138047361E-02
 1.383556386E+00 1.486335659E-01 3.137267234E-02
 1.555465803E+00 1.495986444E-01 3.135658629E-02
 1.600000000E+00 1.500000000E-01 3.134293406E-02
 1.514915459E+00 1.491027231E-01 3.137507694E-02
 1.438215852E+00 1.828487736E-01 3.135733349E-02
 1.474251996E+00 1.869625161E-01 3.135124175E-02
 1.288959290E+00 1.118138804E-01 3.131230398E-02
 1.200000000E+00 4.000000763E-02 2.975660569E-02
 1.209014623E+00 6.490670562E-02 3.083472235E-02
 1.200000000E+00 5.000000763E-02 3.034942364E-02
 1.236971481E+00 1.070627035E-01 3.128887167E-02
 1.224169582E+00 9.181251968E-02 3.122326090E-02
 1.211061591E+00 7.853647564E-02 3.110344561E-02
 1.270716490E+00 1.312473128E-01 3.133307246E-02
 1.252694177E+00 1.313892748E-01 3.133189208E-02
 1.306851450E+00 1.525118397E-01 3.134915713E-02
 1.329269621E+00 1.767561537E-01 3.135031619E-02
 1.356654475E+00 1.769861187E-01 3.135325080E-02
 1.288994820E+00 1.318928851E-01 3.133772070E-02
 1.383724054E+00 1.762569421E-01 3.135779063E-02
 1.410179425E+00 1.766140961E-01 3.135988628E-02
 1.552903700E+00 1.972002558E-01 3.132415807E-02
 1.600000000E+00 2.000000000E-01 3.131074989E-02
 1.512478788E+00 1.911932467E-01 3.134237853E-02
 1.468864887E+00 2.253720710E-01 3.131372052E-02
 1.426318918E+00 2.199935970E-01 3.132330637E-02
 1.200000000E+00 6.000000763E-02 3.074400471E-02
 1.236637804E+00 1.178030904E-01 3.131604341E-02
 1.223309353E+00 1.057036876E-01 3.128745600E-02
 1.211077243E+00 9.136201334E-02 3.122579626E-02
 1.200000000E+00 7.000000763E-02 3.096436166E-02
 1.200000000E+00 8.000000763E-02 3.111907123E-02
 1.236704289E+00 1.328808790E-01 3.133396306E-02
 1.253437625E+00 1.489259043E-01 3.134539649E-02
 1.271065346E+00 1.493823842E-01 3.134419898E-02
 1.300560602E+00 1.738057217E-01 3.134968847E-02
 1.287922233E+00 1.541864557E-01 3.134655066E-02
 1.329243826E+00 2.044859722E-01 3.134167746E-02
 1.357065422E+00 2.043607123E-01 3.133953141E-02
 1.384430117E+00 2.025920623E-01 3.133996594E-02
 1.406976153E+00 1.997332518E-01 3.134251354E-02
 1.543451725E+00 2.480991069E-01 3.127623025E-02
 1.600000000E+00 2.500000000E-01 3.126504588E-02
 1.507724215E+00 2.315486829E-01 3.130399811E-02
 1.466823718E+00 2.629948210E-01 3.127654263E-02
 1.427544683E+00 2.618997529E-01 3.128372153E-02
 1.222898939E+00 1.188479307E-01 3.131803210E-02
 1.209003562E+00 1.051102884E-01 3.128988061E-02
 1.200000000E+00 9.000000000E-02 3.122707039E-02
 1.220833492E+00 1.334127936E-01 3.133892310E-02
 1.236535842E+00 1.488567254E-01 3.134814433E-02
 1.272207015E+00 1.628381323E-01 3.134994543E-02
 1.253427776E+00 1.658144628E-01 3.135433343E-02
 1.302324973E+00 2.037233209E-01 3.134625770E-02
 1.328362739E+00 2.326858156E-01 3.132783082E-02
 1.357971233E+00 2.329835310E-01 3.132074438E-02
 1.389902570E+00 2.299348074E-01 3.131749357E-02
 1.550279022E+00 3.002991182E-01 3.123260541E-02
 1.600000000E+00 3.000000000E-01 3.122768606E-02
 1.506101461E+00 2.615303070E-01 3.127015348E-02
 1.426081984E+00 3.005046510E-01 3.125576893E-02
 1.464545830E+00 3.031646060E-01 3.124626383E-02
 1.390873118E+00 2.640602606E-01 3.128950117E-02
 1.210631214E+00 1.184857412E-01 3.132197077E-02
 1.200000000E+00 1.000000000E-01 3.127953178E-02
 1.223034827E+00 1.472617618E-01 3.135259085E-02
 1.210591777E+00 1.299904994E-01 3.133909351E-02
 1.232893682E+00 1.661909116E-01 3.136198646E-02
 1.276434734E+00 1.818508385E-01 3.135334304E-02
 1.255190155E+00 1.851282146E-01 3.136042888E-02
 1.301708942E+00 2.307188160E-01 3.133742075E-02
 1.277806798E+00 2.054973152E-01 3.135335701E-02
 1.356539867E+00 2.645825982E-01 3.129788957E-02
 1.324471462E+00 2.622456928E-01 3.131020948E-02
 1.506286403E+00 3.035198081E-01 3.123933557E-02
 1.551063359E+00 3.496448209E-01 3.119235553E-02
 1.600000000E+00 3.500000000E-01 3.118793132E-02
 1.422529247E+00 3.369000889E-01 3.123694585E-02
 1.458585324E+00 3.454605164E-01 3.121773918E-02
 1.389359610E+00 2.996729058E-01 3.126593228E-02
 1.200000000E+00 1.100000000E-01 3.130545919E-02
 1.200000000E+00 1.200000076E-01 3.132503640E-02
 1.210783709E+00 1.380648645E-01 3.134993682E-02
 1.211709567E+00 1.488561649E-01 3.135976447E-02