TITLE     = "fluent21.1.0  build-id: 10179"
VARIABLES = "X"
"Y"
"Velocity Magnitude"
DATASETAUXDATA CFDA.ID1="Pressure"
DATASETAUXDATA CFDA.ID2="Density"
DATASETAUXDATA Common.DensityVar="12"
DATASETAUXDATA Common.PressureVar="3"
DATASETAUXDATA Common.UVar="5"
DATASETAUXDATA Common.VectorVarsAreVelocity="TRUE"
DATASETAUXDATA Common.ViscosityVar="14"
DATASETAUXDATA Common.VVar="7"
ZONE T="sur_out"
 STRANDID=1, SOLUTIONTIME=146.25
 Nodes=3645, Elements=3561, ZONETYPE=FEQuadrilateral
 DATAPACKING=POINT
 FACENEIGHBORCONNECTIONS=420
 FACENEIGHBORMODE=GLOBALONETOMANY
 DT=(DOUBLE DOUBLE DOUBLE )
 9.800000000E-01 -1.499999695E-01 2.801320546E-02
 9.848922573E-01 -1.592536950E-01 2.845014946E-02
 9.716137399E-01 -1.610950442E-01 2.803474631E-02
 9.700000000E-01 -1.499999695E-01 2.770746300E-02
 9.900000000E-01 -1.499999695E-01 2.839464589E-02
 9.844187159E-01 -1.737998713E-01 2.914229170E-02
 9.710235029E-01 -1.735375376E-01 2.869306060E-02
 9.983364284E-01 -1.613115469E-01 2.915787998E-02
 1.000000000E+00 -1.499999695E-01 2.894335032E-02
 9.983397345E-01 -1.742551693E-01 2.970382864E-02
 9.664596712E-01 -1.855372630E-01 2.934866732E-02
 9.833260674E-01 -1.880699545E-01 2.991376716E-02
 1.010051393E+00 -1.616764781E-01 2.974981367E-02
 1.010000000E+00 -1.499999695E-01 2.952839218E-02
 1.011199641E+00 -1.737185131E-01 3.022934013E-02
 9.993782330E-01 -1.881456019E-01 3.044247806E-02
 9.828825642E-01 -2.046390800E-01 3.076209327E-02
 9.668813886E-01 -2.041200589E-01 3.037394862E-02
 1.020000000E+00 -1.499999695E-01 3.010499421E-02
 1.020622692E+00 -1.616086685E-01 3.032506336E-02
 1.016173878E+00 -1.853463946E-01 3.101964391E-02
 1.020233559E+00 -1.735960104E-01 3.074806812E-02
 9.996054517E-01 -2.048024578E-01 3.125991235E-02
 9.815895196E-01 -2.213614293E-01 3.143981104E-02
 9.685570950E-01 -2.213401947E-01 3.110574283E-02
 1.030000000E+00 -1.499999695E-01 3.067855503E-02
 1.032169937E+00 -1.610900711E-01 3.091784600E-02
 1.016744298E+00 -2.040925117E-01 3.183587572E-02
 1.032912106E+00 -1.736653216E-01 3.137650789E-02
 9.992910245E-01 -2.221047175E-01 3.193643110E-02
 9.756273949E-01 -2.373617250E-01 3.174764374E-02
 1.040000000E+00 -1.499999695E-01 3.115590477E-02
 1.045114628E+00 -1.590086361E-01 3.154254638E-02
 1.033265806E+00 -1.870865293E-01 3.186961809E-02
 1.017416959E+00 -2.218971282E-01 3.250605018E-02
 1.033662296E+00 -2.040728278E-01 3.247791695E-02
 1.045937816E+00 -1.727914685E-01 3.197994813E-02
 9.985327983E-01 -2.402789198E-01 3.234568252E-02
 1.050000000E+00 -1.499999695E-01 3.159364000E-02
 1.050233938E+00 -1.850747144E-01 3.261378269E-02
 1.034993406E+00 -2.210159044E-01 3.303730550E-02
 1.018567410E+00 -2.401695756E-01 3.289280223E-02
 1.049529382E+00 -2.038224278E-01 3.314064284E-02
 1.055472723E+00 -1.733672214E-01 3.253786986E-02
 1.057437524E+00 -1.610852910E-01 3.225293508E-02
 1.000627150E+00 -2.613049857E-01 3.257019918E-02
 9.773085229E-01 -2.622297408E-01 3.216380768E-02
 1.060000000E+00 -1.499999695E-01 3.211136491E-02
 1.041074334E+00 -2.369678404E-01 3.350854351E-02
 1.047781505E+00 -2.210136085E-01 3.354240594E-02
 1.017155969E+00 -2.611881674E-01 3.298602679E-02
 1.066926723E+00 -1.882063995E-01 3.345886987E-02
 1.066331260E+00 -2.048507278E-01 3.381841893E-02
 1.069137140E+00 -1.618931851E-01 3.280797525E-02
 1.068281615E+00 -1.745174118E-01 3.314369556E-02
 1.009533852E+00 -2.811661627E-01 3.282209941E-02
 9.804534319E-01 -2.863888876E-01 3.240956426E-02
 1.070000000E+00 -1.499999695E-01 3.262832479E-02
 1.039866733E+00 -2.617011538E-01 3.345581721E-02
 1.065528897E+00 -2.222482613E-01 3.411891177E-02
 1.082807145E+00 -1.881893719E-01 3.409724148E-02
 1.083243592E+00 -2.048443897E-01 3.444332500E-02
 1.080805141E+00 -1.618902319E-01 3.330873119E-02
 1.081565077E+00 -1.745032500E-01 3.372123853E-02
 1.012356823E+00 -3.115213046E-01 3.283929600E-02
 9.831312867E-01 -3.144958131E-01 3.256389226E-02
 1.080000000E+00 -1.499999695E-01 3.308901917E-02
 1.064082293E+00 -2.407146395E-01 3.415722197E-02
 1.064088385E+00 -2.627646382E-01 3.394862664E-02
 1.037075888E+00 -2.854274682E-01 3.326990475E-02
 1.083864031E+00 -2.222033160E-01 3.467533132E-02
 1.099486486E+00 -1.850944388E-01 3.462364386E-02
 1.099910236E+00 -2.038713121E-01 3.494602474E-02
 1.094365329E+00 -1.733720081E-01 3.414669165E-02
 1.092502972E+00 -1.610862215E-01 3.372275928E-02
 1.022841537E+00 -3.375099004E-01 3.291649594E-02
 9.868071138E-01 -3.436345611E-01 3.265636466E-02
 1.033920782E+00 -3.123679350E-01 3.310856372E-02
 1.090000000E+00 -1.499999695E-01 3.348178514E-02
 1.085547599E+00 -2.405231215E-01 3.464950707E-02
 1.087340913E+00 -2.618505698E-01 3.437227877E-02
 1.064981623E+00 -2.863227954E-01 3.365851387E-02
 1.101130245E+00 -2.211136646E-01 3.509247656E-02
 1.115757568E+00 -2.042031502E-01 3.532571660E-02
 1.116444294E+00 -1.871490466E-01 3.512854447E-02
 1.103906780E+00 -1.728041222E-01 3.448707947E-02
 1.104836161E+00 -1.590111686E-01 3.406469237E-02
 1.021183783E+00 -3.760787075E-01 3.286018168E-02
 9.869527790E-01 -3.766223339E-01 3.270482035E-02
 1.063403816E+00 -3.144412140E-01 3.338359601E-02
 1.100000000E+00 -1.499999695E-01 3.375252361E-02
 1.106881150E+00 -2.371360624E-01 3.505114405E-02
 1.104335385E+00 -2.613591635E-01 3.460562762E-02
 1.095341859E+00 -2.823295914E-01 3.406670947E-02
 1.113865562E+00 -2.212439679E-01 3.535153460E-02
 1.116938063E+00 -1.736948971E-01 3.484430222E-02
 1.132815920E+00 -2.043440398E-01 3.557381516E-02
 1.133612890E+00 -1.854573840E-01 3.542142535E-02
 1.117773430E+00 -1.610986654E-01 3.450201981E-02
 1.059939183E+00 -3.439469938E-01 3.316583952E-02
 1.016345184E+00 -4.113899500E-01 3.277437593E-02
 9.867114171E-01 -4.098558494E-01 3.269160989E-02
 1.058659910E+00 -3.782157546E-01 3.302149962E-02
 1.094795505E+00 -3.145426680E-01 3.362009718E-02
 1.110000000E+00 -1.499999695E-01 3.400768110E-02
 1.127756127E+00 -2.637398129E-01 3.466304940E-02
 1.129522491E+00 -2.412843810E-01 3.516210045E-02
 1.131687493E+00 -2.224391680E-01 3.549807893E-02
 1.129638257E+00 -1.736485226E-01 3.511295918E-02
 1.150230418E+00 -2.051162054E-01 3.565631930E-02
 1.150499395E+00 -1.882933044E-01 3.559825819E-02
 1.120000000E+00 -1.499999695E-01 3.431895554E-02
 1.129327418E+00 -1.616266773E-01 3.476967422E-02
 1.094861358E+00 -3.454273222E-01 3.334405112E-02
 1.000655724E+00 -4.453158168E-01 3.243034246E-02
 1.056847931E+00 -4.142106228E-01 3.286197065E-02
 1.096716176E+00 -3.782292088E-01 3.315575300E-02
 1.125255870E+00 -2.875727602E-01 3.415193204E-02
 1.125638385E+00 -3.154065442E-01 3.373656106E-02
 1.151766799E+00 -2.416472456E-01 3.513796130E-02
 1.151917607E+00 -2.644260424E-01 3.462633996E-02
 1.150555499E+00 -2.227815862E-01 3.552050625E-02
 1.138686372E+00 -1.737821869E-01 3.528380824E-02
 1.167095301E+00 -2.049300419E-01 3.557955499E-02
 1.166640853E+00 -1.881764494E-01 3.556203365E-02
 1.151584490E+00 -1.743234836E-01 3.539411375E-02
 1.130000000E+00 -1.499999695E-01 3.457182691E-02
 1.139909851E+00 -1.616993572E-01 3.494530101E-02
 1.128054094E+00 -3.445429921E-01 3.344093873E-02
 1.051963525E+00 -4.537702264E-01 3.241074379E-02
 1.100448762E+00 -4.133041887E-01 3.294725973E-02
 1.133006440E+00 -3.752730060E-01 3.323947831E-02
 1.152286078E+00 -2.886623079E-01 3.413330204E-02
 1.154501610E+00 -3.145968655E-01 3.374109988E-02
 1.175072661E+00 -2.380518194E-01 3.499026529E-02
 1.175872033E+00 -2.634051138E-01 3.446036539E-02
 1.168545595E+00 -2.219078943E-01 3.543180880E-02
 1.165552831E+00 -1.738297688E-01 3.539529629E-02
 1.183028520E+00 -2.044457675E-01 3.536723994E-02
 1.183490904E+00 -1.856101349E-01 3.535651807E-02
 1.151641450E+00 -1.613330053E-01 3.504827271E-02
 1.140000000E+00 -1.499999695E-01 3.474360827E-02
 1.158759274E+00 -3.418150085E-01 3.344957449E-02
 1.100399912E+00 -4.552733900E-01 3.242926781E-02
 1.050000000E+00 -5.000000000E-01 3.206160889E-02
 1.000000000E+00 -5.000000000E-01 3.204776324E-02
 1.147907489E+00 -4.050819153E-01 3.301852897E-02
 1.159348002E+00 -3.732379079E-01 3.324097509E-02
 1.181365030E+00 -3.119792214E-01 3.368454869E-02
 1.177469746E+00 -2.877829475E-01 3.401500642E-02
 1.197733932E+00 -2.414135583E-01 3.454822844E-02
 1.199011059E+00 -2.631488073E-01 3.417435868E-02
 1.181458919E+00 -2.218681297E-01 3.521552308E-02
 1.178923151E+00 -1.735406110E-01 3.530053136E-02
 1.165098254E+00 -1.592588202E-01 3.502856616E-02
 1.200145781E+00 -2.053367669E-01 3.500590952E-02
 1.200628640E+00 -1.882138239E-01 3.502061959E-02
 1.150000000E+00 -1.499999695E-01 3.485046886E-02
 1.193203628E+00 -3.344623711E-01 3.338893348E-02
 1.100000000E+00 -5.000000000E-01 3.204058514E-02
 1.149254346E+00 -4.536970090E-01 3.241791551E-02
 1.197809781E+00 -3.702839722E-01 3.314863011E-02
 1.200285133E+00 -3.110747014E-01 3.355205829E-02
 1.200359926E+00 -2.868726543E-01 3.381111071E-02
 1.199197208E+00 -2.230512058E-01 3.483856426E-02
 1.217555883E+00 -2.413146796E-01 3.413483617E-02
 1.221961020E+00 -2.606383780E-01 3.382184669E-02
 1.188311478E+00 -1.736318395E-01 3.515029528E-02
 1.178337393E+00 -1.610907009E-01 3.503330379E-02
 1.160000000E+00 -1.499999695E-01 3.485833725E-02
 1.201489354E+00 -1.738255933E-01 3.489738491E-02
 1.217755271E+00 -2.056393390E-01 3.451946300E-02
 1.217484387E+00 -1.880378921E-01 3.454600476E-02
 1.150000000E+00 -5.000000000E-01 3.200959940E-02
 1.197626729E+00 -4.091578427E-01 3.290153126E-02
 1.198794652E+00 -4.540558880E-01 3.234203389E-02
 1.227844520E+00 -3.360201221E-01 3.317662467E-02
 1.241121511E+00 -3.633151814E-01 3.297221364E-02
 1.226181157E+00 -3.102102684E-01 3.333035745E-02
 1.224581716E+00 -2.849485600E-01 3.353459732E-02
 1.217397501E+00 -2.235836463E-01 3.437876555E-02
 1.233080811E+00 -2.395787495E-01 3.381305954E-02
 1.246650166E+00 -2.531168366E-01 3.340127390E-02
 1.189377927E+00 -1.615313082E-01 3.490456002E-02
 1.170000000E+00 -1.499999695E-01 3.486687534E-02
 1.180000000E+00 -1.499999695E-01 3.487102334E-02
 1.200929522E+00 -1.613664272E-01 3.468101757E-02
 1.216200337E+00 -1.720115854E-01 3.448445871E-02
 1.235970011E+00 -2.055955020E-01 3.394395334E-02
 1.235382386E+00 -1.862393431E-01 3.394462481E-02
 1.200000000E+00 -5.000000000E-01 3.193658423E-02
 1.246059916E+00 -4.064727843E-01 3.275088901E-02
 1.248329222E+00 -4.530442975E-01 3.222153119E-02
 1.250871786E+00 -3.360926673E-01 3.297395745E-02
 1.251982826E+00 -3.084644819E-01 3.306101553E-02
 1.249714351E+00 -2.817292447E-01 3.319580132E-02
 1.235036384E+00 -2.243047324E-01 3.387262915E-02
 1.253623546E+00 -2.284130968E-01 3.332492686E-02
 1.190000000E+00 -1.499999695E-01 3.475926773E-02
 1.212938254E+00 -1.600298976E-01 3.434804965E-02
 1.199999988E+00 -1.499999762E-01 3.440323556E-02
 1.232889354E+00 -1.661529585E-01 3.382177661E-02
 1.255679771E+00 -2.061657539E-01 3.329518608E-02
 1.255220811E+00 -1.850516130E-01 3.323286967E-02
 1.250000000E+00 -5.000000000E-01 3.183930607E-02
 1.297108723E+00 -3.998765363E-01 3.256249764E-02
 1.298438804E+00 -4.514649641E-01 3.208684496E-02
 1.282918700E+00 -3.666694765E-01 3.272674538E-02
 1.282396201E+00 -3.354743188E-01 3.272952976E-02
 1.275406730E+00 -2.797204147E-01 3.281681437E-02
 1.280962038E+00 -3.048866989E-01 3.275437802E-02
 1.274606118E+00 -2.547848815E-01 3.282275475E-02
 1.276991368E+00 -2.298603804E-01 3.273181407E-02
 1.222947223E+00 -1.578115694E-01 3.401973690E-02
 1.211693653E+00 -1.488525539E-01 3.408835057E-02
 1.253417301E+00 -1.657890145E-01 3.306397197E-02
 1.277872707E+00 -2.054215006E-01 3.257590276E-02
 1.276450853E+00 -1.817888279E-01 3.242045434E-02
 1.300000000E+00 -5.000000000E-01 3.173241842E-02
 1.347128132E+00 -4.070835262E-01 3.234628614E-02
 1.348266969E+00 -4.526190837E-01 3.195731805E-02
 1.310998062E+00 -3.676919305E-01 3.254133255E-02
 1.314678295E+00 -3.335791621E-01 3.247364905E-02
 1.296204872E+00 -2.771482370E-01 3.251230140E-02
 1.313888052E+00 -2.954361171E-01 3.235863585E-02
 1.299319835E+00 -2.562881791E-01 3.236835499E-02
 1.301800466E+00 -2.306911719E-01 3.214889183E-02
 1.223014062E+00 -1.472518522E-01 3.372894315E-02
 1.236517240E+00 -1.488358255E-01 3.329820295E-02
 1.200000000E+00 -1.399999695E-01 3.389908427E-02
 1.210771662E+00 -1.380622634E-01 3.375878779E-02
 1.272194647E+00 -1.627938533E-01 3.230918393E-02
 1.253418784E+00 -1.489002186E-01 3.270550758E-02
 1.300544446E+00 -1.737654749E-01 3.142199608E-02
 1.302363450E+00 -2.036678324E-01 3.184624093E-02
 1.350000000E+00 -5.000000000E-01 3.162941662E-02
 1.397427828E+00 -4.516042659E-01 3.187863593E-02
 1.393785680E+00 -4.051771003E-01 3.222987866E-02
 1.349174715E+00 -3.699374185E-01 3.237008759E-02
 1.351176042E+00 -3.346842753E-01 3.225139889E-02
 1.324590977E+00 -2.623266998E-01 3.200432755E-02
 1.328439881E+00 -2.326984266E-01 3.164979018E-02
 1.220813384E+00 -1.334072372E-01 3.327998180E-02
 1.236687350E+00 -1.328649908E-01 3.279928572E-02
 1.210579613E+00 -1.299892931E-01 3.335539391E-02
 1.200000000E+00 -1.299999695E-01 3.345013393E-02
 1.287891839E+00 -1.541448618E-01 3.145268604E-02
 1.271044165E+00 -1.493456554E-01 3.202892664E-02
 1.252677881E+00 -1.313678660E-01 3.219972328E-02
 1.329253927E+00 -2.044579298E-01 3.119463334E-02
 1.329218103E+00 -1.767407174E-01 3.059243317E-02
 1.352871384E+00 -2.988704471E-01 3.203562924E-02
 1.400000000E+00 -5.000000000E-01 3.157216779E-02
 1.387124332E+00 -3.692897717E-01 3.223316602E-02
 1.447516805E+00 -4.483044856E-01 3.186073760E-02
 1.443365088E+00 -3.925891761E-01 3.217642877E-02
 1.387642433E+00 -3.353208261E-01 3.210161504E-02
 1.356659767E+00 -2.647303612E-01 3.169765426E-02
 1.358038726E+00 -2.330336319E-01 3.124238717E-02
 1.222863778E+00 -1.188423017E-01 3.258108924E-02
 1.236620461E+00 -1.177881350E-01 3.226532253E-02
 1.200000000E+00 -1.199999695E-01 3.288360329E-02
 1.210617818E+00 -1.184823104E-01 3.278656864E-02
 1.306797984E+00 -1.524851352E-01 3.062750712E-02
 1.270692245E+00 -1.312220600E-01 3.151293151E-02
 1.249816167E+00 -1.123782149E-01 3.155995085E-02
 1.330550835E+00 -1.516090686E-01 2.984542853E-02
 1.357047800E+00 -2.043575406E-01 3.066023126E-02
 1.356552403E+00 -1.770075265E-01 2.991470075E-02
 1.389436780E+00 -2.998378688E-01 3.186328922E-02
 1.450000000E+00 -5.000000000E-01 3.156341508E-02
 1.417688875E+00 -3.662969315E-01 3.216785618E-02
 1.499131819E+00 -4.488365179E-01 3.186869634E-02
 1.499112105E+00 -3.974552681E-01 3.220690708E-02
 1.422577205E+00 -3.370118466E-01 3.206108831E-02
 1.390899205E+00 -2.641631214E-01 3.147525947E-02
 1.389896523E+00 -2.299906891E-01 3.094138042E-02
 1.236960129E+00 -1.070450284E-01 3.166594920E-02
 1.223291376E+00 -1.056911973E-01 3.187349928E-02
 1.200000000E+00 -1.099999695E-01 3.231791785E-02
 1.208996602E+00 -1.051047223E-01 3.200521394E-02
 1.288949116E+00 -1.318582894E-01 3.078953078E-02
 1.308258837E+00 -1.300397109E-01 2.997731503E-02
 1.270041457E+00 -1.122622816E-01 3.088077855E-02
 1.329802477E+00 -1.264889816E-01 2.904926528E-02
 1.356431653E+00 -1.503186002E-01 2.902778868E-02
 1.383588272E+00 -1.762682289E-01 2.939318117E-02
 1.384365619E+00 -2.026179388E-01 3.026059506E-02
 1.426125544E+00 -3.006203566E-01 3.184876863E-02
 1.500000000E+00 -5.000000000E-01 3.157187607E-02
 1.458604408E+00 -3.455116940E-01 3.212129493E-02
 1.503818348E+00 -3.490806727E-01 3.224263101E-02
 1.549816649E+00 -4.495194326E-01 3.188499520E-02
 1.550035826E+00 -3.991730445E-01 3.227263341E-02
 1.427567302E+00 -2.620091083E-01 3.145913040E-02
 1.426275901E+00 -2.200569350E-01 3.059933115E-02
 1.224161815E+00 -9.178975249E-02 3.106417678E-02
 1.237951530E+00 -9.230544640E-02 3.090014957E-02
 1.200000000E+00 -9.999998474E-02 3.177244752E-02
 1.288917589E+00 -1.118301128E-01 3.015644934E-02
 1.307446016E+00 -1.092338107E-01 2.939323530E-02
 1.252780907E+00 -9.342776338E-02 3.061216363E-02
 1.270670280E+00 -9.359379713E-02 3.012701401E-02
 1.325117921E+00 -1.005119368E-01 2.833624969E-02
 1.355220307E+00 -1.235841808E-01 2.810211648E-02
 1.383396151E+00 -1.486749011E-01 2.836144261E-02
 1.410032272E+00 -1.766814203E-01 2.918504391E-02
 1.406891264E+00 -1.997854314E-01 2.999859248E-02
 1.464559654E+00 -3.032234193E-01 3.198869888E-02
 1.550000000E+00 -5.000000000E-01 3.158535849E-02
 1.506284368E+00 -3.035429834E-01 3.222821102E-02
 1.551060805E+00 -3.496486829E-01 3.241471833E-02
 1.600000000E+00 -4.000000000E-01 3.231223320E-02
 1.600000000E+00 -4.500000000E-01 3.189482437E-02
 1.466818453E+00 -2.630500159E-01 3.169632867E-02
 1.468823833E+00 -2.254138062E-01 3.106347494E-02
 1.211073818E+00 -9.135014956E-02 3.109699298E-02
 1.224118523E+00 -7.784962669E-02 3.019274085E-02
 1.237817199E+00 -7.694664289E-02 3.004302641E-02
 1.200000000E+00 -8.999998474E-02 3.107448065E-02
 1.289125693E+00 -9.371466656E-02 2.948026939E-02
 1.307489718E+00 -9.455348214E-02 2.881636847E-02
 1.252616101E+00 -7.540865344E-02 2.974873056E-02
 1.270590635E+00 -7.490373087E-02 2.932625700E-02
 1.352617431E+00 -9.707780073E-02 2.726605522E-02
 1.381946856E+00 -1.202030229E-01 2.729999150E-02
 1.411486788E+00 -1.475610773E-01 2.800299112E-02
 1.438125520E+00 -1.829313169E-01 2.940518513E-02
 1.506088259E+00 -2.615584551E-01 3.208754961E-02
 1.550273072E+00 -3.003052296E-01 3.255533594E-02
 1.600000000E+00 -3.500000000E-01 3.251687915E-02
 1.474177916E+00 -1.870113483E-01 3.001529922E-02
 1.507695579E+00 -2.315773540E-01 3.167666729E-02
 1.211061947E+00 -7.852304663E-02 3.023466395E-02
 1.236394068E+00 -6.223476328E-02 2.927985510E-02
 1.223204724E+00 -6.418232656E-02 2.934192898E-02
 1.200000000E+00 -7.999998474E-02 3.024857034E-02
 1.289253398E+00 -7.468592377E-02 2.877299798E-02
 1.308229489E+00 -7.466088765E-02 2.814033947E-02
 1.248997978E+00 -5.634823231E-02 2.883490814E-02
 1.269574329E+00 -5.586623393E-02 2.854746778E-02
 1.328139558E+00 -7.503458425E-02 2.744392077E-02
 1.351235763E+00 -7.220195003E-02 2.666707268E-02
 1.378700724E+00 -9.168541987E-02 2.641260458E-02
 1.410362267E+00 -1.167677040E-01 2.682616044E-02
 1.441906786E+00 -1.478570979E-01 2.810317064E-02
 1.543437062E+00 -2.481116956E-01 3.245292785E-02
 1.600000000E+00 -3.000000000E-01 3.274848116E-02
 1.477000034E+00 -1.485295896E-01 2.875841466E-02
 1.512433162E+00 -1.912254591E-01 3.086220264E-02
 1.209018930E+00 -6.489697625E-02 2.925498696E-02
 1.235464751E+00 -5.145524345E-02 2.859908166E-02
 1.223065621E+00 -5.177720932E-02 2.854609016E-02
 1.200000000E+00 -6.999998474E-02 2.950425228E-02
 1.288860626E+00 -5.531932375E-02 2.810945627E-02
 1.307914377E+00 -5.424949984E-02 2.754695185E-02
 1.269756457E+00 -3.688704086E-02 2.784253009E-02
 1.250940640E+00 -3.677626744E-02 2.792312335E-02
 1.327770690E+00 -5.256348019E-02 2.687909162E-02
 1.350945839E+00 -5.387956402E-02 2.620851341E-02
 1.372949304E+00 -6.257459635E-02 2.580707365E-02
 1.407157829E+00 -8.682004772E-02 2.592779989E-02
 1.440656879E+00 -1.122855518E-01 2.686564960E-02
 1.600000000E+00 -2.500000000E-01 3.293632278E-02
 1.514859522E+00 -1.491465667E-01 2.971168157E-02
 1.476646286E+00 -1.101128611E-01 2.759246225E-02
 1.552882057E+00 -1.972147958E-01 3.197522336E-02
 1.210827977E+00 -5.177952331E-02 2.837175144E-02
 1.222523657E+00 -3.970364802E-02 2.786095874E-02
 1.233212580E+00 -3.545825738E-02 2.776800918E-02
 1.200000000E+00 -6.000000000E-02 2.889635851E-02
 1.288491427E+00 -3.636794775E-02 2.755726884E-02
 1.306734568E+00 -3.442873131E-02 2.715383313E-02
 1.251638552E+00 -1.838685733E-02 2.721156615E-02
 1.269942984E+00 -1.851701520E-02 2.726125429E-02
 1.323938300E+00 -2.702875090E-02 2.657779725E-02
 1.351498812E+00 -2.799475607E-02 2.592565767E-02
 1.405645947E+00 -6.420773890E-02 2.540822513E-02
 1.433556811E+00 -7.433275936E-02 2.583849010E-02
 1.600000000E+00 -2.000000000E-01 3.265494276E-02
 1.555441416E+00 -1.496221403E-01 3.088335381E-02
 1.514228734E+00 -1.072672392E-01 2.857052755E-02
 1.474437125E+00 -7.227822930E-02 2.674932140E-02
 1.200000000E+00 -4.999998474E-02 2.823643767E-02
 1.211190839E+00 -4.044847366E-02 2.766198658E-02
 1.222327996E+00 -3.111674072E-02 2.731092777E-02
 1.288425483E+00 -1.875827123E-02 2.712818094E-02
 1.306594170E+00 -2.006872676E-02 2.688324629E-02
 1.234522844E+00 -1.821906524E-02 2.700348171E-02
 1.251008985E+00 -1.097445627E-05 2.668404393E-02
 1.269886067E+00 -1.781740475E-05 2.686453989E-02
 1.378218246E+00 -3.089830895E-02 2.545396022E-02
 1.326976683E+00 -4.779004451E-05 2.646863495E-02
 1.352537358E+00 -7.356960876E-05 2.607869408E-02
 1.408495408E+00 -3.286134863E-02 2.532638261E-02
 1.600000000E+00 -1.500000000E-01 3.160733391E-02
 1.553854741E+00 -1.021740673E-01 2.946961265E-02
 1.511416728E+00 -6.761027193E-02 2.770660528E-02
 1.439886277E+00 -3.607222905E-02 2.572589176E-02
 1.475686564E+00 -3.691602591E-02 2.656339934E-02
 1.200000000E+00 -3.999998474E-02 2.752961193E-02
 1.211192295E+00 -3.029889859E-02 2.704606178E-02
 1.222383452E+00 -1.900615888E-02 2.675668146E-02
 1.288515628E+00 -2.621027817E-05 2.686037847E-02
 1.307216195E+00 -3.357713739E-05 2.673699200E-02
 1.229610158E+00 2.341857905E-04 2.625395905E-02
 1.251636151E+00 1.836870873E-02 2.638438729E-02
 1.269935241E+00 1.848228870E-02 2.667547204E-02
 1.379797983E+00 -9.632294136E-05 2.579192539E-02
 1.351470482E+00 2.783276228E-02 2.672491376E-02
 1.323932053E+00 2.692830982E-02 2.686026108E-02
 1.409738049E+00 -1.132893677E-04 2.585969573E-02
 1.600000000E+00 -1.000000000E-01 2.997944910E-02
 1.545526578E+00 -5.178382583E-02 2.811914018E-02
 1.511382241E+00 -3.910208220E-02 2.738515699E-02
 1.476544747E+00 -9.243838485E-05 2.715128392E-02
 1.441650961E+00 -1.069973836E-04 2.638282818E-02
 1.200000000E+00 -2.999998474E-02 2.690178488E-02
 1.211154639E+00 -1.962276594E-02 2.648848472E-02
 1.221224785E+00 -7.046096442E-03 2.624296408E-02
 1.288405837E+00 1.869907806E-02 2.679595365E-02
 1.306585525E+00 1.999446807E-02 2.679995713E-02
 1.234521760E+00 1.821047799E-02 2.596147371E-02
 1.250933917E+00 3.676739418E-02 2.628326936E-02
 1.269746154E+00 3.685841572E-02 2.668319562E-02
 1.378217508E+00 3.070514641E-02 2.675543517E-02
 1.350972308E+00 5.371525776E-02 2.766043074E-02
 1.327784505E+00 5.245710523E-02 2.758868589E-02
 1.408469629E+00 3.262877590E-02 2.709905391E-02
 1.600000000E+00 -5.000000000E-02 2.842915295E-02
 1.512669199E+00 -6.330405099E-05 2.772817804E-02
 1.439891644E+00 3.586980305E-02 2.775133065E-02
 1.475659090E+00 3.673478418E-02 2.832908757E-02
 1.200000000E+00 -1.999998474E-02 2.634297135E-02
 1.210801369E+00 -9.168473943E-03 2.600160450E-02
 1.220221304E+00 5.639762474E-05 2.591553033E-02
 1.288474868E+00 3.631234574E-02 2.692581308E-02
 1.306727499E+00 3.435293817E-02 2.702212706E-02
 1.221732506E+00 7.235208221E-03 2.571797012E-02
 1.222382768E+00 1.900107353E-02 2.553140639E-02
 1.233205608E+00 3.545983268E-02 2.574017971E-02
 1.248989363E+00 5.635052891E-02 2.635371751E-02
 1.269566014E+00 5.584596093E-02 2.691695378E-02
 1.373003172E+00 6.240010054E-02 2.831579870E-02
 1.351303364E+00 7.204149296E-02 2.870980468E-02
 1.328178190E+00 7.493451365E-02 2.855356976E-02
 1.307917551E+00 5.417662905E-02 2.749809796E-02
 1.405709684E+00 6.399571184E-02 2.868625261E-02
 1.600000000E+00 0.000000000E+00 2.773132659E-02
 1.550979181E+00 -3.270768808E-05 2.779386749E-02
 1.511385226E+00 3.898221295E-02 2.853953760E-02
 1.433632175E+00 7.416468400E-02 2.978360989E-02
 1.474494489E+00 7.213525702E-02 2.989949006E-02
 1.200000000E+00 -9.999984741E-03 2.585800146E-02
 1.210724277E+00 -1.949596454E-06 2.562745392E-02
 1.288850065E+00 5.526984601E-02 2.728227813E-02
 1.210801396E+00 9.164896564E-03 2.534878676E-02
 1.211154489E+00 1.962011382E-02 2.512787467E-02
 1.222322322E+00 3.111775499E-02 2.535149814E-02
 1.235450332E+00 5.146777557E-02 2.580364971E-02
 1.252611646E+00 7.541961117E-02 2.683352757E-02
 1.270586836E+00 7.489373208E-02 2.737137049E-02
 1.308247619E+00 7.459550345E-02 2.824475009E-02
 1.352738475E+00 9.695080053E-02 3.008000565E-02
 1.325184380E+00 1.004443310E-01 2.977780485E-02
 1.407280919E+00 8.664577403E-02 3.031543903E-02
 1.378812997E+00 9.154289373E-02 3.020908111E-02
 1.545538209E+00 5.171893619E-02 2.855631081E-02
 1.600000000E+00 5.000000000E-02 2.799643585E-02
 1.511448995E+00 6.751066652E-02 2.958944716E-02
 1.440784140E+00 1.121768740E-01 3.196420401E-02
 1.476773204E+00 1.100281496E-01 3.155914246E-02
 1.200000000E+00 1.525878906E-08 2.546374722E-02
 1.289255985E+00 7.464309684E-02 2.785046053E-02
 1.211189755E+00 3.029936470E-02 2.497495010E-02
 1.200000000E+00 2.000001526E-02 2.493246864E-02
 1.200000000E+00 1.000001526E-02 2.515787352E-02
 1.222511158E+00 3.971074905E-02 2.530466875E-02
 1.236384903E+00 6.225190271E-02 2.597145634E-02
 1.223031967E+00 5.179529023E-02 2.536790957E-02
 1.237813826E+00 7.696919890E-02 2.631402841E-02
 1.252785182E+00 9.343834659E-02 2.733848641E-02
 1.270678249E+00 9.358874941E-02 2.796516342E-02
 1.307528336E+00 9.450321580E-02 2.901216234E-02
 1.355375073E+00 1.235396821E-01 3.164702684E-02
 1.329895772E+00 1.264614273E-01 3.123797027E-02
 1.382100654E+00 1.201196299E-01 3.195516998E-02
 1.410544384E+00 1.166774938E-01 3.206306839E-02
 1.553877641E+00 1.021345092E-01 2.961777817E-02
 1.600000000E+00 1.000000000E-01 2.881751620E-02
 1.514287551E+00 1.071991858E-01 3.084536435E-02
 1.477097263E+00 1.484691960E-01 3.287889853E-02
 1.442032078E+00 1.477792032E-01 3.343447391E-02
 1.289148449E+00 9.368005231E-02 2.853394005E-02
 1.211184913E+00 4.045263610E-02 2.491822598E-02
 1.200000000E+00 3.000000763E-02 2.478545173E-02
 1.223194453E+00 6.420878647E-02 2.552228575E-02
 1.210817070E+00 5.178825073E-02 2.494393697E-02
 1.237955246E+00 9.232523207E-02 2.672860366E-02
 1.224117723E+00 7.787881265E-02 2.581153460E-02
 1.249830209E+00 1.123921699E-01 2.789143045E-02
 1.270062404E+00 1.122674341E-01 2.865919195E-02
 1.307497685E+00 1.092003023E-01 2.979884612E-02
 1.356573963E+00 1.502979303E-01 3.299462850E-02
 1.330645218E+00 1.516128319E-01 3.239009955E-02
 1.308318734E+00 1.300397821E-01 3.076715866E-02
 1.411651072E+00 1.474937411E-01 3.356410882E-02
 1.383556386E+00 1.486335659E-01 3.339861436E-02
 1.555465803E+00 1.495986444E-01 3.070822779E-02
 1.600000000E+00 1.500000000E-01 2.986493878E-02
 1.514915459E+00 1.491027231E-01 3.202028829E-02
 1.438215852E+00 1.828487736E-01 3.423037298E-02
 1.474251996E+00 1.869625161E-01 3.360631990E-02
 1.288959290E+00 1.118138804E-01 2.930956309E-02
 1.200000000E+00 4.000000763E-02 2.472294053E-02
 1.209014623E+00 6.490670562E-02 2.503223660E-02
 1.200000000E+00 5.000000763E-02 2.474438566E-02
 1.236971481E+00 1.070627035E-01 2.711679005E-02
 1.224169582E+00 9.181251968E-02 2.617628955E-02
 1.211061591E+00 7.853647564E-02 2.537254691E-02
 1.270716490E+00 1.312473128E-01 2.945247190E-02
 1.252694177E+00 1.313892748E-01 2.874275611E-02
 1.306851450E+00 1.525118397E-01 3.169247783E-02
 1.329269621E+00 1.767561537E-01 3.321219989E-02
 1.356654475E+00 1.769861187E-01 3.389133929E-02
 1.288994820E+00 1.318928851E-01 3.017827119E-02
 1.383724054E+00 1.762569421E-01 3.429300474E-02
 1.410179425E+00 1.766140961E-01 3.442227231E-02
 1.552903700E+00 1.972002558E-01 3.156153302E-02
 1.600000000E+00 2.000000000E-01 3.085359358E-02
 1.512478788E+00 1.911932467E-01 3.272675181E-02
 1.468864887E+00 2.253720710E-01 3.377995529E-02
 1.426318918E+00 2.199935970E-01 3.446299710E-02
 1.200000000E+00 6.000000763E-02 2.478389085E-02
 1.236637804E+00 1.178030904E-01 2.755554039E-02
 1.223309353E+00 1.057036876E-01 2.659169263E-02
 1.211077243E+00 9.136201334E-02 2.570907798E-02
 1.200000000E+00 7.000000763E-02 2.491720648E-02
 1.200000000E+00 8.000000763E-02 2.518539860E-02
 1.236704289E+00 1.328808790E-01 2.814327235E-02
 1.253437625E+00 1.489259043E-01 2.943362655E-02
 1.271065346E+00 1.493823842E-01 3.012641117E-02
 1.300560602E+00 1.738057217E-01 3.220716086E-02
 1.287922233E+00 1.541864557E-01 3.101017324E-02
 1.329243826E+00 2.044859722E-01 3.378405040E-02
 1.357065422E+00 2.043607123E-01 3.438149707E-02
 1.384430117E+00 2.025920623E-01 3.468197069E-02
 1.406976153E+00 1.997332518E-01 3.472285692E-02
 1.543451725E+00 2.480991069E-01 3.219859369E-02
 1.600000000E+00 2.500000000E-01 3.157427091E-02
 1.507724215E+00 2.315486829E-01 3.301073768E-02
 1.466823718E+00 2.629948210E-01 3.353471937E-02
 1.427544683E+00 2.618997529E-01 3.401599683E-02
 1.222898939E+00 1.188479307E-01 2.706949460E-02
 1.209003562E+00 1.051102884E-01 2.609631643E-02
 1.200000000E+00 9.000000000E-02 2.550000343E-02
 1.220833492E+00 1.334127936E-01 2.758748858E-02
 1.236535842E+00 1.488567254E-01 2.877427635E-02
 1.272207015E+00 1.628381323E-01 3.075238876E-02
 1.253427776E+00 1.658144628E-01 3.011245996E-02
 1.302324973E+00 2.037233209E-01 3.303934998E-02
 1.328362739E+00 2.326858156E-01 3.404718910E-02
 1.357971233E+00 2.329835310E-01 3.447024825E-02
 1.389902570E+00 2.299348074E-01 3.464399012E-02
 1.550279022E+00 3.002991182E-01 3.226593443E-02
 1.600000000E+00 3.000000000E-01 3.195443145E-02
 1.506101461E+00 2.615303070E-01 3.294735967E-02
 1.426081984E+00 3.005046510E-01 3.352064070E-02
 1.464545830E+00 3.031646060E-01 3.318898170E-02
 1.390873118E+00 2.640602606E-01 3.421032535E-02
 1.210631214E+00 1.184857412E-01 2.665583905E-02
 1.200000000E+00 1.000000000E-01 2.577483864E-02
 1.223034827E+00 1.472617618E-01 2.825235628E-02
 1.210591777E+00 1.299904994E-01 2.706819908E-02
 1.232893682E+00 1.661909116E-01 2.937293171E-02
 1.276434734E+00 1.818508385E-01 3.154253131E-02
 1.255190155E+00 1.851282146E-01 3.088647259E-02
 1.301708942E+00 2.307188160E-01 3.348347507E-02
 1.277806798E+00 2.054973152E-01 3.231734604E-02
 1.356539867E+00 2.645825982E-01 3.412041715E-02
 1.324471462E+00 2.622456928E-01 3.386800807E-02
 1.506286403E+00 3.035198081E-01 3.278029229E-02
 1.551063359E+00 3.496448209E-01 3.233066835E-02
 1.600000000E+00 3.500000000E-01 3.211718252E-02
 1.422529247E+00 3.369000889E-01 3.319082754E-02
 1.458585324E+00 3.454605164E-01 3.296424591E-02
 1.389359610E+00 2.996729058E-01 3.366961879E-02
 1.200000000E+00 1.100000000E-01 2.607486952E-02
 1.200000000E+00 1.200000076E-01 2.649089102E-02
 1.210783709E+00 1.380648645E-01 2.746215577E-02
 1.211709567E+00 1.488561649E-01 2.794001893E-02