TITLE     = "fluent21.1.0  build-id: 10179"
VARIABLES = "X"
"Y"
"Velocity Magnitude"
DATASETAUXDATA CFDA.ID1="Pressure"
DATASETAUXDATA CFDA.ID2="Density"
DATASETAUXDATA Common.DensityVar="12"
DATASETAUXDATA Common.PressureVar="3"
DATASETAUXDATA Common.UVar="5"
DATASETAUXDATA Common.VectorVarsAreVelocity="TRUE"
DATASETAUXDATA Common.ViscosityVar="14"
DATASETAUXDATA Common.VVar="7"
ZONE T="sur_out"
 STRANDID=1, SOLUTIONTIME=155
 Nodes=3645, Elements=3561, ZONETYPE=FEQuadrilateral
 DATAPACKING=POINT
 FACENEIGHBORCONNECTIONS=420
 FACENEIGHBORMODE=GLOBALONETOMANY
 DT=(DOUBLE DOUBLE DOUBLE )
 9.800000000E-01 -1.499999695E-01 3.505584421E-02
 9.848922573E-01 -1.592536950E-01 3.496500079E-02
 9.716137399E-01 -1.610950442E-01 3.541009450E-02
 9.700000000E-01 -1.499999695E-01 3.535810005E-02
 9.900000000E-01 -1.499999695E-01 3.475525716E-02
 9.844187159E-01 -1.737998713E-01 3.507820204E-02
 9.710235029E-01 -1.735375376E-01 3.549810900E-02
 9.983364284E-01 -1.613115469E-01 3.445250129E-02
 1.000000000E+00 -1.499999695E-01 3.437526265E-02
 9.983397345E-01 -1.742551693E-01 3.452509052E-02
 9.664596712E-01 -1.855372630E-01 3.559532764E-02
 9.833260674E-01 -1.880699545E-01 3.504542704E-02
 1.010051393E+00 -1.616764781E-01 3.393415368E-02
 1.010000000E+00 -1.499999695E-01 3.388402680E-02
 1.011199641E+00 -1.737185131E-01 3.398385361E-02
 9.993782330E-01 -1.881456019E-01 3.444358298E-02
 9.828825642E-01 -2.046390800E-01 3.485045172E-02
 9.668813886E-01 -2.041200589E-01 3.533203924E-02
 1.020000000E+00 -1.499999695E-01 3.336912999E-02
 1.020622692E+00 -1.616086685E-01 3.341613684E-02
 1.016173878E+00 -1.853463946E-01 3.374261596E-02
 1.020233559E+00 -1.735960104E-01 3.350324405E-02
 9.996054517E-01 -2.048024578E-01 3.427548905E-02
 9.815895196E-01 -2.213614293E-01 3.457599521E-02
 9.685570950E-01 -2.213401947E-01 3.495215898E-02
 1.030000000E+00 -1.499999695E-01 3.282201128E-02
 1.032169937E+00 -1.610900711E-01 3.285436837E-02
 1.016744298E+00 -2.040925117E-01 3.366010490E-02
 1.032912106E+00 -1.736653216E-01 3.293947558E-02
 9.992910245E-01 -2.221047175E-01 3.407537435E-02
 9.756273949E-01 -2.373617250E-01 3.440177028E-02
 1.040000000E+00 -1.499999695E-01 3.229305499E-02
 1.045114628E+00 -1.590086361E-01 3.216886797E-02
 1.033265806E+00 -1.870865293E-01 3.301643098E-02
 1.017416959E+00 -2.218971282E-01 3.352882088E-02
 1.033662296E+00 -2.040728278E-01 3.304680862E-02
 1.045937816E+00 -1.727914685E-01 3.234994373E-02
 9.985327983E-01 -2.402789198E-01 3.386048152E-02
 1.050000000E+00 -1.499999695E-01 3.186959309E-02
 1.050233938E+00 -1.850747144E-01 3.229134115E-02
 1.034993406E+00 -2.210159044E-01 3.302949504E-02
 1.018567410E+00 -2.401695756E-01 3.338908246E-02
 1.049529382E+00 -2.038224278E-01 3.247668129E-02
 1.055472723E+00 -1.733672214E-01 3.187330077E-02
 1.057437524E+00 -1.610852910E-01 3.158980796E-02
 1.000627150E+00 -2.613049857E-01 3.362744290E-02
 9.773085229E-01 -2.622297408E-01 3.395297653E-02
 1.060000000E+00 -1.499999695E-01 3.143090694E-02
 1.041074334E+00 -2.369678404E-01 3.285644873E-02
 1.047781505E+00 -2.210136085E-01 3.260498658E-02
 1.017155969E+00 -2.611881674E-01 3.328715512E-02
 1.066926723E+00 -1.882063995E-01 3.168786119E-02
 1.066331260E+00 -2.048507278E-01 3.194584170E-02
 1.069137140E+00 -1.618931851E-01 3.107818995E-02
 1.068281615E+00 -1.745174118E-01 3.139306674E-02
 1.009533852E+00 -2.811661627E-01 3.330457745E-02
 9.804534319E-01 -2.863888876E-01 3.360640296E-02
 1.070000000E+00 -1.499999695E-01 3.092005487E-02
 1.039866733E+00 -2.617011538E-01 3.289797447E-02
 1.065528897E+00 -2.222482613E-01 3.216580093E-02
 1.082807145E+00 -1.881893719E-01 3.114478749E-02
 1.083243592E+00 -2.048443897E-01 3.143993387E-02
 1.080805141E+00 -1.618902319E-01 3.057276677E-02
 1.081565077E+00 -1.745032500E-01 3.086285259E-02
 1.012356823E+00 -3.115213046E-01 3.314446271E-02
 9.831312867E-01 -3.144958131E-01 3.334063377E-02
 1.080000000E+00 -1.499999695E-01 3.042671843E-02
 1.064082293E+00 -2.407146395E-01 3.235435111E-02
 1.064088385E+00 -2.627646382E-01 3.249030250E-02
 1.037075888E+00 -2.854274682E-01 3.291931416E-02
 1.083864031E+00 -2.222033160E-01 3.171592618E-02
 1.099486486E+00 -1.850944388E-01 3.055041024E-02
 1.099910236E+00 -2.038713121E-01 3.100201613E-02
 1.094365329E+00 -1.733720081E-01 3.037258677E-02
 1.092502972E+00 -1.610862215E-01 3.008563056E-02
 1.022841537E+00 -3.375099004E-01 3.297274209E-02
 9.868071138E-01 -3.436345611E-01 3.315072699E-02
 1.033920782E+00 -3.123679350E-01 3.292511708E-02
 1.090000000E+00 -1.499999695E-01 2.994899628E-02
 1.085547599E+00 -2.405231215E-01 3.194308203E-02
 1.087340913E+00 -2.618505698E-01 3.213539944E-02
 1.064981623E+00 -2.863227954E-01 3.258484358E-02
 1.101130245E+00 -2.211136646E-01 3.134156121E-02
 1.115757568E+00 -2.042031502E-01 3.065778635E-02
 1.116444294E+00 -1.871490466E-01 3.016253660E-02
 1.103906780E+00 -1.728041222E-01 2.999845138E-02
 1.104836161E+00 -1.590111686E-01 2.953680764E-02
 1.021183783E+00 -3.760787075E-01 3.291709320E-02
 9.869527790E-01 -3.766223339E-01 3.302973921E-02
 1.063403816E+00 -3.144412140E-01 3.267399171E-02
 1.100000000E+00 -1.499999695E-01 2.950754596E-02
 1.106881150E+00 -2.371360624E-01 3.154835407E-02
 1.104335385E+00 -2.613591635E-01 3.190224033E-02
 1.095341859E+00 -2.823295914E-01 3.223578784E-02
 1.113865562E+00 -2.212439679E-01 3.109647556E-02
 1.116938063E+00 -1.736948971E-01 2.967029880E-02
 1.132815920E+00 -2.043440398E-01 3.039829591E-02
 1.133612890E+00 -1.854573840E-01 2.973400880E-02
 1.117773430E+00 -1.610986654E-01 2.916870716E-02
 1.059939183E+00 -3.439469938E-01 3.274465299E-02
 1.016345184E+00 -4.113899500E-01 3.281877259E-02
 9.867114171E-01 -4.098558494E-01 3.289576989E-02
 1.058659910E+00 -3.782157546E-01 3.277808090E-02
 1.094795505E+00 -3.145426680E-01 3.244812218E-02
 1.110000000E+00 -1.499999695E-01 2.919470079E-02
 1.127756127E+00 -2.637398129E-01 3.176212580E-02
 1.129522491E+00 -2.412843810E-01 3.137903653E-02
 1.131687493E+00 -2.224391680E-01 3.092769651E-02
 1.129638257E+00 -1.736485226E-01 2.932815758E-02
 1.150230418E+00 -2.051162054E-01 3.022056429E-02
 1.150499395E+00 -1.882933044E-01 2.958224642E-02
 1.120000000E+00 -1.499999695E-01 2.891240263E-02
 1.129327418E+00 -1.616266773E-01 2.884197344E-02
 1.094861358E+00 -3.454273222E-01 3.257430609E-02
 1.000655724E+00 -4.453158168E-01 3.247396960E-02
 1.056847931E+00 -4.142106228E-01 3.270753336E-02
 1.096716176E+00 -3.782292088E-01 3.265181184E-02
 1.125255870E+00 -2.875727602E-01 3.207315393E-02
 1.125638385E+00 -3.154065442E-01 3.230616527E-02
 1.151766799E+00 -2.416472456E-01 3.127042405E-02
 1.151917607E+00 -2.644260424E-01 3.168176673E-02
 1.150555499E+00 -2.227815862E-01 3.078740045E-02
 1.138686372E+00 -1.737821869E-01 2.910343592E-02
 1.167095301E+00 -2.049300419E-01 3.011407871E-02
 1.166640853E+00 -1.881764494E-01 2.943386207E-02
 1.151584490E+00 -1.743234836E-01 2.893065893E-02
 1.130000000E+00 -1.499999695E-01 2.858334983E-02
 1.139909851E+00 -1.616993572E-01 2.857245589E-02
 1.128054094E+00 -3.445429921E-01 3.246593130E-02
 1.051963525E+00 -4.537702264E-01 3.229492097E-02
 1.100448762E+00 -4.133041887E-01 3.262640836E-02
 1.133006440E+00 -3.752730060E-01 3.257047572E-02
 1.152286078E+00 -2.886623079E-01 3.201029174E-02
 1.154501610E+00 -3.145968655E-01 3.225304241E-02
 1.175072661E+00 -2.380518194E-01 3.120614208E-02
 1.175872033E+00 -2.634051138E-01 3.171423443E-02
 1.168545595E+00 -2.219078943E-01 3.069650459E-02
 1.165552831E+00 -1.738297688E-01 2.875102918E-02
 1.183028520E+00 -2.044457675E-01 3.011606143E-02
 1.183490904E+00 -1.856101349E-01 2.928496876E-02
 1.151641450E+00 -1.613330053E-01 2.833075928E-02
 1.140000000E+00 -1.499999695E-01 2.830254392E-02
 1.158759274E+00 -3.418150085E-01 3.242908683E-02
 1.100399912E+00 -4.552733900E-01 3.223131220E-02
 1.050000000E+00 -5.000000000E-01 3.195872458E-02
 1.000000000E+00 -5.000000000E-01 3.204095690E-02
 1.147907489E+00 -4.050819153E-01 3.259352644E-02
 1.159348002E+00 -3.732379079E-01 3.255066702E-02
 1.181365030E+00 -3.119792214E-01 3.226704157E-02
 1.177469746E+00 -2.877829475E-01 3.204380269E-02
 1.197733932E+00 -2.414135583E-01 3.145521610E-02
 1.199011059E+00 -2.631488073E-01 3.187170020E-02
 1.181458919E+00 -2.218681297E-01 3.073799501E-02
 1.178923151E+00 -1.735406110E-01 2.863747415E-02
 1.165098254E+00 -1.592588202E-01 2.803880303E-02
 1.200145781E+00 -2.053367669E-01 3.026677862E-02
 1.200628640E+00 -1.882138239E-01 2.952361991E-02
 1.150000000E+00 -1.499999695E-01 2.805419516E-02
 1.193203628E+00 -3.344623711E-01 3.246027515E-02
 1.100000000E+00 -5.000000000E-01 3.188833269E-02
 1.149254346E+00 -4.536970090E-01 3.222858920E-02
 1.197809781E+00 -3.702839722E-01 3.260201857E-02
 1.200285133E+00 -3.110747014E-01 3.235813944E-02
 1.200359926E+00 -2.868726543E-01 3.217172693E-02
 1.199197208E+00 -2.230512058E-01 3.092958299E-02
 1.217555883E+00 -2.413146796E-01 3.171330724E-02
 1.221961020E+00 -2.606383780E-01 3.212269659E-02
 1.188311478E+00 -1.736318395E-01 2.867124824E-02
 1.178337393E+00 -1.610907009E-01 2.804503230E-02
 1.160000000E+00 -1.499999695E-01 2.781386067E-02
 1.201489354E+00 -1.738255933E-01 2.883182177E-02
 1.217755271E+00 -2.056393390E-01 3.053357114E-02
 1.217484387E+00 -1.880378921E-01 2.976981737E-02
 1.150000000E+00 -5.000000000E-01 3.188548102E-02
 1.197626729E+00 -4.091578427E-01 3.263270258E-02
 1.198794652E+00 -4.540558880E-01 3.226606717E-02
 1.227844520E+00 -3.360201221E-01 3.262456073E-02
 1.241121511E+00 -3.633151814E-01 3.274703545E-02
 1.226181157E+00 -3.102102684E-01 3.253863038E-02
 1.224581716E+00 -2.849485600E-01 3.239239342E-02
 1.217397501E+00 -2.235836463E-01 3.119085535E-02
 1.233080811E+00 -2.395787495E-01 3.192538294E-02
 1.246650166E+00 -2.531168366E-01 3.241616840E-02
 1.189377927E+00 -1.615313082E-01 2.809333096E-02
 1.170000000E+00 -1.499999695E-01 2.771898161E-02
 1.180000000E+00 -1.499999695E-01 2.774977751E-02
 1.200929522E+00 -1.613664272E-01 2.821260250E-02
 1.216200337E+00 -1.720115854E-01 2.902916828E-02
 1.235970011E+00 -2.055955020E-01 3.092809871E-02
 1.235382386E+00 -1.862393431E-01 3.014898870E-02
 1.200000000E+00 -5.000000000E-01 3.191831405E-02
 1.246059916E+00 -4.064727843E-01 3.272929900E-02
 1.248329222E+00 -4.530442975E-01 3.233339032E-02
 1.250871786E+00 -3.360926673E-01 3.280377068E-02
 1.251982826E+00 -3.084644819E-01 3.278898657E-02
 1.249714351E+00 -2.817292447E-01 3.270733844E-02
 1.235036384E+00 -2.243047324E-01 3.157038091E-02
 1.253623546E+00 -2.284130968E-01 3.209574914E-02
 1.190000000E+00 -1.499999695E-01 2.779999162E-02
 1.212938254E+00 -1.600298976E-01 2.837952716E-02
 1.199999988E+00 -1.499999762E-01 2.776610961E-02
 1.232889354E+00 -1.661529585E-01 2.922520537E-02
 1.255679771E+00 -2.061657539E-01 3.148500508E-02
 1.255220811E+00 -1.850516130E-01 3.073187017E-02
 1.250000000E+00 -5.000000000E-01 3.197719062E-02
 1.297108723E+00 -3.998765363E-01 3.289227791E-02
 1.298438804E+00 -4.514649641E-01 3.239761087E-02
 1.282918700E+00 -3.666694765E-01 3.295394825E-02
 1.282396201E+00 -3.354743188E-01 3.303261237E-02
 1.275406730E+00 -2.797204147E-01 3.310352345E-02
 1.280962038E+00 -3.048866989E-01 3.310251475E-02
 1.274606118E+00 -2.547848815E-01 3.302356155E-02
 1.276991368E+00 -2.298603804E-01 3.273116715E-02
 1.222947223E+00 -1.578115694E-01 2.852179197E-02
 1.211693653E+00 -1.488525539E-01 2.781644971E-02
 1.253417301E+00 -1.657890145E-01 2.996599757E-02
 1.277872707E+00 -2.054215006E-01 3.216690496E-02
 1.276450853E+00 -1.817888279E-01 3.141478303E-02
 1.300000000E+00 -5.000000000E-01 3.202690073E-02
 1.347128132E+00 -4.070835262E-01 3.296084562E-02
 1.348266969E+00 -4.526190837E-01 3.242227755E-02
 1.310998062E+00 -3.676919305E-01 3.310382814E-02
 1.314678295E+00 -3.335791621E-01 3.327554959E-02
 1.296204872E+00 -2.771482370E-01 3.344777820E-02
 1.313888052E+00 -2.954361171E-01 3.355123723E-02
 1.299319835E+00 -2.562881791E-01 3.355004904E-02
 1.301800466E+00 -2.306911719E-01 3.341637098E-02
 1.223014062E+00 -1.472518522E-01 2.810211440E-02
 1.236517240E+00 -1.488358255E-01 2.860908642E-02
 1.200000000E+00 -1.399999695E-01 2.724011186E-02
 1.210771662E+00 -1.380622634E-01 2.732834576E-02
 1.272194647E+00 -1.627938533E-01 3.061726149E-02
 1.253418784E+00 -1.489002186E-01 2.926282071E-02
 1.300544446E+00 -1.737654749E-01 3.211196300E-02
 1.302363450E+00 -2.036678324E-01 3.294045503E-02
 1.350000000E+00 -5.000000000E-01 3.203465721E-02
 1.397427828E+00 -4.516042659E-01 3.240957140E-02
 1.393785680E+00 -4.051771003E-01 3.298880320E-02
 1.349174715E+00 -3.699374185E-01 3.321026476E-02
 1.351176042E+00 -3.346842753E-01 3.346109874E-02
 1.324590977E+00 -2.623266998E-01 3.398685776E-02
 1.328439881E+00 -2.326984266E-01 3.406406306E-02
 1.220813384E+00 -1.334072372E-01 2.741387974E-02
 1.236687350E+00 -1.328649908E-01 2.794105173E-02
 1.210579613E+00 -1.299892931E-01 2.691695844E-02
 1.200000000E+00 -1.299999695E-01 2.678903864E-02
 1.287891839E+00 -1.541448618E-01 3.086689307E-02
 1.271044165E+00 -1.493456554E-01 2.996052134E-02
 1.252677881E+00 -1.313678660E-01 2.852586546E-02
 1.329253927E+00 -2.044579298E-01 3.374856667E-02
 1.329218103E+00 -1.767407174E-01 3.315647997E-02
 1.352871384E+00 -2.988704471E-01 3.385796980E-02
 1.400000000E+00 -5.000000000E-01 3.200523281E-02
 1.387124332E+00 -3.692897717E-01 3.327232760E-02
 1.447516805E+00 -4.483044856E-01 3.234011616E-02
 1.443365088E+00 -3.925891761E-01 3.299259787E-02
 1.387642433E+00 -3.353208261E-01 3.354029490E-02
 1.356659767E+00 -2.647303612E-01 3.433774075E-02
 1.358038726E+00 -2.330336319E-01 3.458983143E-02
 1.222863778E+00 -1.188423017E-01 2.685057446E-02
 1.236620461E+00 -1.177881350E-01 2.730999304E-02
 1.200000000E+00 -1.199999695E-01 2.633008599E-02
 1.210617818E+00 -1.184823104E-01 2.647381337E-02
 1.306797984E+00 -1.524851352E-01 3.155188485E-02
 1.270692245E+00 -1.312220600E-01 2.923363381E-02
 1.249816167E+00 -1.123782149E-01 2.760963686E-02
 1.330550835E+00 -1.516090686E-01 3.224339592E-02
 1.357047800E+00 -2.043575406E-01 3.441539715E-02
 1.356552403E+00 -1.770075265E-01 3.386125900E-02
 1.389436780E+00 -2.998378688E-01 3.396681340E-02
 1.450000000E+00 -5.000000000E-01 3.192823773E-02
 1.417688875E+00 -3.662969315E-01 3.328005877E-02
 1.499131819E+00 -4.488365179E-01 3.220306902E-02
 1.499112105E+00 -3.974552681E-01 3.274531998E-02
 1.422577205E+00 -3.370118466E-01 3.347248290E-02
 1.390899205E+00 -2.641631214E-01 3.451218193E-02
 1.389896523E+00 -2.299906891E-01 3.486331039E-02
 1.236960129E+00 -1.070450284E-01 2.682550491E-02
 1.223291376E+00 -1.056911973E-01 2.632391185E-02
 1.200000000E+00 -1.099999695E-01 2.589092941E-02
 1.208996602E+00 -1.051047223E-01 2.587586089E-02
 1.288949116E+00 -1.318582894E-01 2.995822711E-02
 1.308258837E+00 -1.300397109E-01 3.052687914E-02
 1.270041457E+00 -1.122622816E-01 2.836792859E-02
 1.329802477E+00 -1.264889816E-01 3.095047884E-02
 1.356431653E+00 -1.503186002E-01 3.282674817E-02
 1.383588272E+00 -1.762682289E-01 3.428635919E-02
 1.384365619E+00 -2.026179388E-01 3.479027986E-02
 1.426125544E+00 -3.006203566E-01 3.385361633E-02
 1.500000000E+00 -5.000000000E-01 3.180797427E-02
 1.458604408E+00 -3.455116940E-01 3.324937117E-02
 1.503818348E+00 -3.490806727E-01 3.295995049E-02
 1.549816649E+00 -4.495194326E-01 3.199858008E-02
 1.550035826E+00 -3.991730445E-01 3.246824658E-02
 1.427567302E+00 -2.620091083E-01 3.437333202E-02
 1.426275901E+00 -2.200569350E-01 3.472899478E-02
 1.224161815E+00 -9.178975249E-02 2.585144228E-02
 1.237951530E+00 -9.230544640E-02 2.637785794E-02
 1.200000000E+00 -9.999998474E-02 2.556306440E-02
 1.288917589E+00 -1.118301128E-01 2.900433419E-02
 1.307446016E+00 -1.092338107E-01 2.946411985E-02
 1.252780907E+00 -9.342776338E-02 2.697718294E-02
 1.270670280E+00 -9.359379713E-02 2.759484497E-02
 1.325117921E+00 -1.005119368E-01 2.934985368E-02
 1.355220307E+00 -1.235841808E-01 3.128964980E-02
 1.383396151E+00 -1.486749011E-01 3.320419038E-02
 1.410032272E+00 -1.766814203E-01 3.446036380E-02
 1.406891264E+00 -1.997854314E-01 3.487697059E-02
 1.464559654E+00 -3.032234193E-01 3.352575751E-02
 1.550000000E+00 -5.000000000E-01 3.163573916E-02
 1.506284368E+00 -3.035429834E-01 3.310382507E-02
 1.551060805E+00 -3.496486829E-01 3.257919446E-02
 1.600000000E+00 -4.000000000E-01 3.229864596E-02
 1.600000000E+00 -4.500000000E-01 3.187467634E-02
 1.466818453E+00 -2.630500159E-01 3.391458855E-02
 1.468823833E+00 -2.254138062E-01 3.411876686E-02
 1.211073818E+00 -9.135014956E-02 2.542727877E-02
 1.224118523E+00 -7.784962669E-02 2.542465735E-02
 1.237817199E+00 -7.694664289E-02 2.589400046E-02
 1.200000000E+00 -8.999998474E-02 2.524335341E-02
 1.289125693E+00 -9.371466656E-02 2.814642400E-02
 1.307489718E+00 -9.455348214E-02 2.859617739E-02
 1.252616101E+00 -7.540865344E-02 2.639427332E-02
 1.270590635E+00 -7.490373087E-02 2.692006964E-02
 1.352617431E+00 -9.707780073E-02 2.954562568E-02
 1.381946856E+00 -1.202030229E-01 3.151478850E-02
 1.411486788E+00 -1.475610773E-01 3.336241800E-02
 1.438125520E+00 -1.829313169E-01 3.433746829E-02
 1.506088259E+00 -2.615584551E-01 3.331511705E-02
 1.550273072E+00 -3.003052296E-01 3.255037074E-02
 1.600000000E+00 -3.500000000E-01 3.233780329E-02
 1.474177916E+00 -1.870113483E-01 3.377850467E-02
 1.507695579E+00 -2.315773540E-01 3.336389195E-02
 1.211061947E+00 -7.852304663E-02 2.503641680E-02
 1.236394068E+00 -6.223476328E-02 2.549129347E-02
 1.223204724E+00 -6.418232656E-02 2.507621294E-02
 1.200000000E+00 -7.999998474E-02 2.488018403E-02
 1.289253398E+00 -7.468592377E-02 2.738111752E-02
 1.308229489E+00 -7.466088765E-02 2.774185114E-02
 1.248997978E+00 -5.634823231E-02 2.583434189E-02
 1.269574329E+00 -5.586623393E-02 2.639293281E-02
 1.328139558E+00 -7.503458425E-02 2.799044370E-02
 1.351235763E+00 -7.220195003E-02 2.805540192E-02
 1.378700724E+00 -9.168541987E-02 2.954922941E-02
 1.410362267E+00 -1.167677040E-01 3.154929958E-02
 1.441906786E+00 -1.478570979E-01 3.326231453E-02
 1.543437062E+00 -2.481116956E-01 3.252102677E-02
 1.600000000E+00 -3.000000000E-01 3.220588962E-02
 1.477000034E+00 -1.485295896E-01 3.275381948E-02
 1.512433162E+00 -1.912254591E-01 3.294500231E-02
 1.209018930E+00 -6.489697625E-02 2.464555534E-02
 1.235464751E+00 -5.145524345E-02 2.527188908E-02
 1.223065621E+00 -5.177720932E-02 2.486580361E-02
 1.200000000E+00 -6.999998474E-02 2.457741033E-02
 1.288860626E+00 -5.531932375E-02 2.674227380E-02
 1.307914377E+00 -5.424949984E-02 2.692162697E-02
 1.269756457E+00 -3.688704086E-02 2.610104727E-02
 1.250940640E+00 -3.677626744E-02 2.569138055E-02
 1.327770690E+00 -5.256348019E-02 2.695008578E-02
 1.350945839E+00 -5.387956402E-02 2.693144862E-02
 1.372949304E+00 -6.257459635E-02 2.750904786E-02
 1.407157829E+00 -8.682004772E-02 2.954155402E-02
 1.440656879E+00 -1.122855518E-01 3.141606538E-02
 1.600000000E+00 -2.500000000E-01 3.186184301E-02
 1.514859522E+00 -1.491465667E-01 3.195172643E-02
 1.476646286E+00 -1.101128611E-01 3.102526571E-02
 1.552882057E+00 -1.972147958E-01 3.180158215E-02
 1.210827977E+00 -5.177952331E-02 2.448869250E-02
 1.222523657E+00 -3.970364802E-02 2.475471345E-02
 1.233212580E+00 -3.545825738E-02 2.514969628E-02
 1.200000000E+00 -6.000000000E-02 2.440771113E-02
 1.288491427E+00 -3.636794775E-02 2.633873336E-02
 1.306734568E+00 -3.442873131E-02 2.641016733E-02
 1.251638552E+00 -1.838685733E-02 2.574066539E-02
 1.269942984E+00 -1.851701520E-02 2.605276660E-02
 1.323938300E+00 -2.702875090E-02 2.619984357E-02
 1.351498812E+00 -2.799475607E-02 2.596020651E-02
 1.405645947E+00 -6.420773890E-02 2.774236191E-02
 1.433556811E+00 -7.433275936E-02 2.887044036E-02
 1.600000000E+00 -2.000000000E-01 3.109579300E-02
 1.555441416E+00 -1.496221403E-01 3.067581991E-02
 1.514228734E+00 -1.072672392E-01 3.035396479E-02
 1.474437125E+00 -7.227822930E-02 2.898730220E-02
 1.200000000E+00 -4.999998474E-02 2.431693227E-02
 1.211190839E+00 -4.044847366E-02 2.441259885E-02
 1.222327996E+00 -3.111674072E-02 2.476158857E-02
 1.288425483E+00 -1.875827123E-02 2.618195654E-02
 1.306594170E+00 -2.006872676E-02 2.617429025E-02
 1.234522844E+00 -1.821906524E-02 2.531282851E-02
 1.251008985E+00 -1.097445627E-05 2.601705772E-02
 1.269886067E+00 -1.781740475E-05 2.622786277E-02
 1.378218246E+00 -3.089830895E-02 2.585525101E-02
 1.326976683E+00 -4.779004451E-05 2.581785465E-02
 1.352537358E+00 -7.356960876E-05 2.534455589E-02
 1.408495408E+00 -3.286134863E-02 2.606228771E-02
 1.600000000E+00 -1.500000000E-01 2.983266899E-02
 1.553854741E+00 -1.021740673E-01 2.910892353E-02
 1.511416728E+00 -6.761027193E-02 2.868506794E-02
 1.439886277E+00 -3.607222905E-02 2.662961939E-02
 1.475686564E+00 -3.691602591E-02 2.717386713E-02
 1.200000000E+00 -3.999998474E-02 2.424679091E-02
 1.211192295E+00 -3.029889859E-02 2.442545335E-02
 1.222383452E+00 -1.900615888E-02 2.490068112E-02
 1.288515628E+00 -2.621027817E-05 2.623915108E-02
 1.307216195E+00 -3.357713739E-05 2.611411214E-02
 1.229610158E+00 2.341857905E-04 2.557340932E-02
 1.251636151E+00 1.836870873E-02 2.655592033E-02
 1.269935241E+00 1.848228870E-02 2.664500897E-02
 1.379797983E+00 -9.632294136E-05 2.493348105E-02
 1.351470482E+00 2.783276228E-02 2.528547499E-02
 1.323932053E+00 2.692830982E-02 2.600352367E-02
 1.409738049E+00 -1.132893677E-04 2.486704945E-02
 1.600000000E+00 -1.000000000E-01 2.826321444E-02
 1.545526578E+00 -5.178382583E-02 2.749291872E-02
 1.511382241E+00 -3.910208220E-02 2.736493814E-02
 1.476544747E+00 -9.243838485E-05 2.595391903E-02
 1.441650961E+00 -1.069973836E-04 2.527542668E-02
 1.200000000E+00 -2.999998474E-02 2.426554693E-02
 1.211154639E+00 -1.962276594E-02 2.453847132E-02
 1.221224785E+00 -7.046096442E-03 2.505615415E-02
 1.288405837E+00 1.869907806E-02 2.653240413E-02
 1.306585525E+00 1.999446807E-02 2.629666328E-02
 1.234521760E+00 1.821047799E-02 2.631797836E-02
 1.250933917E+00 3.676739418E-02 2.730856685E-02
 1.269746154E+00 3.685841572E-02 2.727902995E-02
 1.378217508E+00 3.070514641E-02 2.472423843E-02
 1.350972308E+00 5.371525776E-02 2.570028933E-02
 1.327784505E+00 5.245710523E-02 2.641572971E-02
 1.408469629E+00 3.262877590E-02 2.449950860E-02
 1.600000000E+00 -5.000000000E-02 2.686954968E-02
 1.512669199E+00 -6.330405099E-05 2.647432359E-02
 1.439891644E+00 3.586980305E-02 2.480543055E-02
 1.475659090E+00 3.673478418E-02 2.553542066E-02
 1.200000000E+00 -1.999998474E-02 2.437315052E-02
 1.210801369E+00 -9.168473943E-03 2.472685651E-02
 1.220221304E+00 5.639762474E-05 2.524338123E-02
 1.288474868E+00 3.631234574E-02 2.702159226E-02
 1.306727499E+00 3.435293817E-02 2.662715879E-02
 1.221732506E+00 7.235208221E-03 2.556301244E-02
 1.222382768E+00 1.900107353E-02 2.606579545E-02
 1.233205608E+00 3.545983268E-02 2.710257195E-02
 1.248989363E+00 5.635052891E-02 2.829771854E-02
 1.269566014E+00 5.584596093E-02 2.807050146E-02
 1.373003172E+00 6.240010054E-02 2.528609797E-02
 1.351303364E+00 7.204149296E-02 2.628787143E-02
 1.328178190E+00 7.493451365E-02 2.711536170E-02
 1.307917551E+00 5.417662905E-02 2.711101142E-02
 1.405709684E+00 6.399571184E-02 2.478959704E-02
 1.600000000E+00 0.000000000E+00 2.630639985E-02
 1.550979181E+00 -3.270768808E-05 2.645253500E-02
 1.511385226E+00 3.898221295E-02 2.624642924E-02
 1.433632175E+00 7.416468400E-02 2.523282599E-02
 1.474494489E+00 7.213525702E-02 2.601128894E-02
 1.200000000E+00 -9.999984741E-03 2.456494819E-02
 1.210724277E+00 -1.949596454E-06 2.498357915E-02
 1.288850065E+00 5.526984601E-02 2.766627369E-02
 1.210801396E+00 9.164896564E-03 2.534044013E-02
 1.211154489E+00 1.962011382E-02 2.581490133E-02
 1.222322322E+00 3.111775499E-02 2.662254563E-02
 1.235450332E+00 5.146777557E-02 2.798683285E-02
 1.252611646E+00 7.541961117E-02 2.934442400E-02
 1.270586836E+00 7.489373208E-02 2.897005551E-02
 1.308247619E+00 7.459550345E-02 2.782761998E-02
 1.352738475E+00 9.695080053E-02 2.702463772E-02
 1.325184380E+00 1.004443310E-01 2.816845989E-02
 1.407280919E+00 8.664577403E-02 2.551089893E-02
 1.378812997E+00 9.154289373E-02 2.608351576E-02
 1.545538209E+00 5.171893619E-02 2.694922707E-02
 1.600000000E+00 5.000000000E-02 2.711593330E-02
 1.511448995E+00 6.751066652E-02 2.681489153E-02
 1.440784140E+00 1.121768740E-01 2.657871038E-02
 1.476773204E+00 1.100281496E-01 2.722349788E-02
 1.200000000E+00 1.525878906E-08 2.484301635E-02
 1.289255985E+00 7.464309684E-02 2.845019474E-02
 1.211189755E+00 3.029936470E-02 2.637188609E-02
 1.200000000E+00 2.000001526E-02 2.568719518E-02
 1.200000000E+00 1.000001526E-02 2.521539456E-02
 1.222511158E+00 3.971074905E-02 2.719088271E-02
 1.236384903E+00 6.225190271E-02 2.873255541E-02
 1.223031967E+00 5.179529023E-02 2.791229133E-02
 1.237813826E+00 7.696919890E-02 2.959088732E-02
 1.252785182E+00 9.343834659E-02 3.034125962E-02
 1.270678249E+00 9.358874941E-02 2.990890624E-02
 1.307528336E+00 9.450321580E-02 2.862786204E-02
 1.355375073E+00 1.235396821E-01 2.800951164E-02
 1.329895772E+00 1.264614273E-01 2.902525355E-02
 1.382100654E+00 1.201196299E-01 2.714406309E-02
 1.410544384E+00 1.166774938E-01 2.661243503E-02
 1.553877641E+00 1.021345092E-01 2.877970863E-02
 1.600000000E+00 1.000000000E-01 2.918287783E-02
 1.514287551E+00 1.071991858E-01 2.807527197E-02
 1.477097263E+00 1.484691960E-01 2.875025065E-02
 1.442032078E+00 1.477792032E-01 2.807588134E-02
 1.289148449E+00 9.368005231E-02 2.928895010E-02
 1.211184913E+00 4.045263610E-02 2.699978392E-02
 1.200000000E+00 3.000000763E-02 2.624319719E-02
 1.223194453E+00 6.420878647E-02 2.876744655E-02
 1.210817070E+00 5.178825073E-02 2.773634191E-02
 1.237955246E+00 9.232523207E-02 3.056408458E-02
 1.224117723E+00 7.787881265E-02 2.969995470E-02
 1.249830209E+00 1.123921699E-01 3.143123743E-02
 1.270062404E+00 1.122674341E-01 3.080359942E-02
 1.307497685E+00 1.092003023E-01 2.931450530E-02
 1.356573963E+00 1.502979303E-01 2.906195282E-02
 1.330645218E+00 1.516128319E-01 2.994202247E-02
 1.308318734E+00 1.300397821E-01 3.001280796E-02
 1.411651072E+00 1.474937411E-01 2.797451881E-02
 1.383556386E+00 1.486335659E-01 2.835015156E-02
 1.555465803E+00 1.495986444E-01 3.084452779E-02
 1.600000000E+00 1.500000000E-01 3.157721583E-02
 1.514915459E+00 1.491027231E-01 2.969506944E-02
 1.438215852E+00 1.828487736E-01 2.954094109E-02
 1.474251996E+00 1.869625161E-01 3.023782293E-02
 1.288959290E+00 1.118138804E-01 3.009577311E-02
 1.200000000E+00 4.000000763E-02 2.687881538E-02
 1.209014623E+00 6.490670562E-02 2.866933049E-02
 1.200000000E+00 5.000000763E-02 2.760675883E-02
 1.236971481E+00 1.070627035E-01 3.143578764E-02
 1.224169582E+00 9.181251968E-02 3.066933308E-02
 1.211061591E+00 7.853647564E-02 2.971896861E-02
 1.270716490E+00 1.312473128E-01 3.157039558E-02
 1.252694177E+00 1.313892748E-01 3.222659096E-02
 1.306851450E+00 1.525118397E-01 3.077562330E-02
 1.329269621E+00 1.767561537E-01 3.078651001E-02
 1.356654475E+00 1.769861187E-01 3.004831990E-02
 1.288994820E+00 1.318928851E-01 3.085410093E-02
 1.383724054E+00 1.762569421E-01 2.948701054E-02
 1.410179425E+00 1.766140961E-01 2.927923438E-02
 1.552903700E+00 1.972002558E-01 3.241620320E-02
 1.600000000E+00 2.000000000E-01 3.320541583E-02
 1.512478788E+00 1.911932467E-01 3.117135866E-02
 1.468864887E+00 2.253720710E-01 3.140815567E-02
 1.426318918E+00 2.199935970E-01 3.084512131E-02
 1.200000000E+00 6.000000763E-02 2.829631496E-02
 1.236637804E+00 1.178030904E-01 3.213351687E-02
 1.223309353E+00 1.057036876E-01 3.158182919E-02
 1.211077243E+00 9.136201334E-02 3.065998445E-02
 1.200000000E+00 7.000000763E-02 2.893684080E-02
 1.200000000E+00 8.000000763E-02 2.972967657E-02
 1.236704289E+00 1.328808790E-01 3.278188884E-02
 1.253437625E+00 1.489259043E-01 3.285276861E-02
 1.271065346E+00 1.493823842E-01 3.219892489E-02
 1.300560602E+00 1.738057217E-01 3.167807242E-02
 1.287922233E+00 1.541864557E-01 3.164398727E-02
 1.329243826E+00 2.044859722E-01 3.145847431E-02
 1.357065422E+00 2.043607123E-01 3.087311926E-02
 1.384430117E+00 2.025920623E-01 3.043914444E-02
 1.406976153E+00 1.997332518E-01 3.016176847E-02
 1.543451725E+00 2.480991069E-01 3.309626061E-02
 1.600000000E+00 2.500000000E-01 3.372773603E-02
 1.507724215E+00 2.315486829E-01 3.213165698E-02
 1.466823718E+00 2.629948210E-01 3.213907240E-02
 1.427544683E+00 2.618997529E-01 3.182125425E-02
 1.222898939E+00 1.188479307E-01 3.239445723E-02
 1.209003562E+00 1.051102884E-01 3.165974374E-02
 1.200000000E+00 9.000000000E-02 3.062274712E-02
 1.220833492E+00 1.334127936E-01 3.320101795E-02
 1.236535842E+00 1.488567254E-01 3.339458566E-02
 1.272207015E+00 1.628381323E-01 3.256451583E-02
 1.253427776E+00 1.658144628E-01 3.331176406E-02
 1.302324973E+00 2.037233209E-01 3.216854953E-02
 1.328362739E+00 2.326858156E-01 3.195364023E-02
 1.357971233E+00 2.329835310E-01 3.151613812E-02
 1.389902570E+00 2.299348074E-01 3.119826234E-02
 1.550279022E+00 3.002991182E-01 3.328144117E-02
 1.600000000E+00 3.000000000E-01 3.356695160E-02
 1.506101461E+00 2.615303070E-01 3.263381887E-02
 1.426081984E+00 3.005046510E-01 3.226876607E-02
 1.464545830E+00 3.031646060E-01 3.248914554E-02
 1.390873118E+00 2.640602606E-01 3.180141912E-02
 1.210631214E+00 1.184857412E-01 3.254846134E-02
 1.200000000E+00 1.000000000E-01 3.138208649E-02
 1.223034827E+00 1.472617618E-01 3.376421548E-02
 1.210591777E+00 1.299904994E-01 3.319635054E-02
 1.232893682E+00 1.661909116E-01 3.400848262E-02
 1.276434734E+00 1.818508385E-01 3.274462095E-02
 1.255190155E+00 1.851282146E-01 3.356652655E-02
 1.301708942E+00 2.307188160E-01 3.249118981E-02
 1.277806798E+00 2.054973152E-01 3.294733988E-02
 1.356539867E+00 2.645825982E-01 3.201505627E-02
 1.324471462E+00 2.622456928E-01 3.232829066E-02
 1.506286403E+00 3.035198081E-01 3.282123746E-02
 1.551063359E+00 3.496448209E-01 3.310535605E-02
 1.600000000E+00 3.500000000E-01 3.326993677E-02
 1.422529247E+00 3.369000889E-01 3.250023234E-02
 1.458585324E+00 3.454605164E-01 3.262869160E-02
 1.389359610E+00 2.996729058E-01 3.223424317E-02
 1.200000000E+00 1.100000000E-01 3.198607542E-02
 1.200000000E+00 1.200000076E-01 3.262632295E-02
 1.210783709E+00 1.380648645E-01 3.366847631E-02
 1.211709567E+00 1.488561649E-01 3.407305128E-02