TITLE     = "fluent21.1.0  build-id: 10179"
VARIABLES = "X"
"Y"
"Velocity Magnitude"
DATASETAUXDATA CFDA.ID1="Pressure"
DATASETAUXDATA CFDA.ID2="Density"
DATASETAUXDATA Common.DensityVar="12"
DATASETAUXDATA Common.PressureVar="3"
DATASETAUXDATA Common.UVar="5"
DATASETAUXDATA Common.VectorVarsAreVelocity="TRUE"
DATASETAUXDATA Common.ViscosityVar="14"
DATASETAUXDATA Common.VVar="7"
ZONE T="sur_out"
 STRANDID=1, SOLUTIONTIME=248
 Nodes=3645, Elements=3561, ZONETYPE=FEQuadrilateral
 DATAPACKING=POINT
 FACENEIGHBORCONNECTIONS=420
 FACENEIGHBORMODE=GLOBALONETOMANY
 DT=(DOUBLE DOUBLE DOUBLE )
 9.800000000E-01 -1.499999695E-01 2.798169857E-02
 9.848922573E-01 -1.592536950E-01 2.812845600E-02
 9.716137399E-01 -1.610950442E-01 2.858348430E-02
 9.700000000E-01 -1.499999695E-01 2.835394436E-02
 9.900000000E-01 -1.499999695E-01 2.775241352E-02
 9.844187159E-01 -1.737998713E-01 2.881194513E-02
 9.710235029E-01 -1.735375376E-01 2.906732532E-02
 9.983364284E-01 -1.613115469E-01 2.792411806E-02
 1.000000000E+00 -1.499999695E-01 2.760909718E-02
 9.983397345E-01 -1.742551693E-01 2.856601721E-02
 9.664596712E-01 -1.855372630E-01 2.969493247E-02
 9.833260674E-01 -1.880699545E-01 2.944819448E-02
 1.010051393E+00 -1.616764781E-01 2.776119496E-02
 1.010000000E+00 -1.499999695E-01 2.745117437E-02
 1.011199641E+00 -1.737185131E-01 2.836273019E-02
 9.993782330E-01 -1.881456019E-01 2.922818231E-02
 9.828825642E-01 -2.046390800E-01 3.004688149E-02
 9.668813886E-01 -2.041200589E-01 3.028041832E-02
 1.020000000E+00 -1.499999695E-01 2.737797482E-02
 1.020622692E+00 -1.616086685E-01 2.768647310E-02
 1.016173878E+00 -1.853463946E-01 2.896946871E-02
 1.020233559E+00 -1.735960104E-01 2.829382428E-02
 9.996054517E-01 -2.048024578E-01 2.989417956E-02
 9.815895196E-01 -2.213614293E-01 3.054890365E-02
 9.685570950E-01 -2.213401947E-01 3.071610281E-02
 1.030000000E+00 -1.499999695E-01 2.738735322E-02
 1.032169937E+00 -1.610900711E-01 2.769162601E-02
 1.016744298E+00 -2.040925117E-01 2.981511938E-02
 1.032912106E+00 -1.736653216E-01 2.833923596E-02
 9.992910245E-01 -2.221047175E-01 3.049012677E-02
 9.756273949E-01 -2.373617250E-01 3.103130719E-02
 1.040000000E+00 -1.499999695E-01 2.741903129E-02
 1.045114628E+00 -1.590086361E-01 2.774918559E-02
 1.033265806E+00 -1.870865293E-01 2.906891943E-02
 1.017416959E+00 -2.218971282E-01 3.047920540E-02
 1.033662296E+00 -2.040728278E-01 2.984781838E-02
 1.045937816E+00 -1.727914685E-01 2.839837046E-02
 9.985327983E-01 -2.402789198E-01 3.097967257E-02
 1.050000000E+00 -1.499999695E-01 2.757726526E-02
 1.050233938E+00 -1.850747144E-01 2.914685230E-02
 1.034993406E+00 -2.210159044E-01 3.051512111E-02
 1.018567410E+00 -2.401695756E-01 3.100742960E-02
 1.049529382E+00 -2.038224278E-01 3.002256858E-02
 1.055472723E+00 -1.733672214E-01 2.862722502E-02
 1.057437524E+00 -1.610852910E-01 2.813690234E-02
 1.000627150E+00 -2.613049857E-01 3.137163324E-02
 9.773085229E-01 -2.622297408E-01 3.147317615E-02
 1.060000000E+00 -1.499999695E-01 2.790814334E-02
 1.041074334E+00 -2.369678404E-01 3.110641545E-02
 1.047781505E+00 -2.210136085E-01 3.068238970E-02
 1.017155969E+00 -2.611881674E-01 3.140597710E-02
 1.066926723E+00 -1.882063995E-01 2.963909810E-02
 1.066331260E+00 -2.048507278E-01 3.035222728E-02
 1.069137140E+00 -1.618931851E-01 2.853252076E-02
 1.068281615E+00 -1.745174118E-01 2.903504646E-02
 1.009533852E+00 -2.811661627E-01 3.170873450E-02
 9.804534319E-01 -2.863888876E-01 3.179369511E-02
 1.070000000E+00 -1.499999695E-01 2.829936026E-02
 1.039866733E+00 -2.617011538E-01 3.159149274E-02
 1.065528897E+00 -2.222482613E-01 3.102385217E-02
 1.082807145E+00 -1.881893719E-01 3.009248888E-02
 1.083243592E+00 -2.048443897E-01 3.077095485E-02
 1.080805141E+00 -1.618902319E-01 2.898138546E-02
 1.081565077E+00 -1.745032500E-01 2.949510765E-02
 1.012356823E+00 -3.115213046E-01 3.201368764E-02
 9.831312867E-01 -3.144958131E-01 3.204597262E-02
 1.080000000E+00 -1.499999695E-01 2.874074175E-02
 1.064082293E+00 -2.407146395E-01 3.153269401E-02
 1.064088385E+00 -2.627646382E-01 3.189878736E-02
 1.037075888E+00 -2.854274682E-01 3.189110294E-02
 1.083864031E+00 -2.222033160E-01 3.143274346E-02
 1.099486486E+00 -1.850944388E-01 3.060152114E-02
 1.099910236E+00 -2.038713121E-01 3.124906784E-02
 1.094365329E+00 -1.733720081E-01 2.992738017E-02
 1.092502972E+00 -1.610862215E-01 2.945819860E-02
 1.022841537E+00 -3.375099004E-01 3.223128949E-02
 9.868071138E-01 -3.436345611E-01 3.223737005E-02
 1.033920782E+00 -3.123679350E-01 3.209727854E-02
 1.090000000E+00 -1.499999695E-01 2.921601506E-02
 1.085547599E+00 -2.405231215E-01 3.194732990E-02
 1.087340913E+00 -2.618505698E-01 3.225151846E-02
 1.064981623E+00 -2.863227954E-01 3.214884007E-02
 1.101130245E+00 -2.211136646E-01 3.182430929E-02
 1.115757568E+00 -2.042031502E-01 3.181794113E-02
 1.116444294E+00 -1.871490466E-01 3.137166909E-02
 1.103906780E+00 -1.728041222E-01 3.039431882E-02
 1.104836161E+00 -1.590111686E-01 2.999421395E-02
 1.021183783E+00 -3.760787075E-01 3.239214311E-02
 9.869527790E-01 -3.766223339E-01 3.237856164E-02
 1.063403816E+00 -3.144412140E-01 3.230043720E-02
 1.100000000E+00 -1.499999695E-01 2.962824825E-02
 1.106881150E+00 -2.371360624E-01 3.241166629E-02
 1.104335385E+00 -2.613591635E-01 3.262235921E-02
 1.095341859E+00 -2.823295914E-01 3.252745619E-02
 1.113865562E+00 -2.212439679E-01 3.225928544E-02
 1.116938063E+00 -1.736948971E-01 3.099789504E-02
 1.132815920E+00 -2.043440398E-01 3.245826478E-02
 1.133612890E+00 -1.854573840E-01 3.207453156E-02
 1.117773430E+00 -1.610986654E-01 3.068905898E-02
 1.059939183E+00 -3.439469938E-01 3.240092625E-02
 1.016345184E+00 -4.113899500E-01 3.244125826E-02
 9.867114171E-01 -4.098558494E-01 3.243791654E-02
 1.058659910E+00 -3.782157546E-01 3.248384611E-02
 1.094795505E+00 -3.145426680E-01 3.257429268E-02
 1.110000000E+00 -1.499999695E-01 3.003821715E-02
 1.127756127E+00 -2.637398129E-01 3.308121552E-02
 1.129522491E+00 -2.412843810E-01 3.305834977E-02
 1.131687493E+00 -2.224391680E-01 3.282505962E-02
 1.129638257E+00 -1.736485226E-01 3.156035631E-02
 1.150230418E+00 -2.051162054E-01 3.311210699E-02
 1.150499395E+00 -1.882933044E-01 3.283836811E-02
 1.120000000E+00 -1.499999695E-01 3.055684325E-02
 1.129327418E+00 -1.616266773E-01 3.124382585E-02
 1.094861358E+00 -3.454273222E-01 3.260420246E-02
 1.000655724E+00 -4.453158168E-01 3.221607281E-02
 1.056847931E+00 -4.142106228E-01 3.249688791E-02
 1.096716176E+00 -3.782292088E-01 3.263334683E-02
 1.125255870E+00 -2.875727602E-01 3.298118758E-02
 1.125638385E+00 -3.154065442E-01 3.288362138E-02
 1.151766799E+00 -2.416472456E-01 3.361508416E-02
 1.151917607E+00 -2.644260424E-01 3.355886284E-02
 1.150555499E+00 -2.227815862E-01 3.342309816E-02
 1.138686372E+00 -1.737821869E-01 3.204239514E-02
 1.167095301E+00 -2.049300419E-01 3.369310821E-02
 1.166640853E+00 -1.881764494E-01 3.343159835E-02
 1.151584490E+00 -1.743234836E-01 3.257335450E-02
 1.130000000E+00 -1.499999695E-01 3.108472317E-02
 1.139909851E+00 -1.616993572E-01 3.174327595E-02
 1.128054094E+00 -3.445429921E-01 3.282978536E-02
 1.051963525E+00 -4.537702264E-01 3.218241145E-02
 1.100448762E+00 -4.133041887E-01 3.260560704E-02
 1.133006440E+00 -3.752730060E-01 3.279736780E-02
 1.152286078E+00 -2.886623079E-01 3.335993280E-02
 1.154501610E+00 -3.145968655E-01 3.317571229E-02
 1.175072661E+00 -2.380518194E-01 3.413951576E-02
 1.175872033E+00 -2.634051138E-01 3.395338492E-02
 1.168545595E+00 -2.219078943E-01 3.391643117E-02
 1.165552831E+00 -1.738297688E-01 3.311076854E-02
 1.183028520E+00 -2.044457675E-01 3.416638839E-02
 1.183490904E+00 -1.856101349E-01 3.393912622E-02
 1.151641450E+00 -1.613330053E-01 3.222360323E-02
 1.140000000E+00 -1.499999695E-01 3.156934261E-02
 1.158759274E+00 -3.418150085E-01 3.304471034E-02
 1.100399912E+00 -4.552733900E-01 3.224021461E-02
 1.050000000E+00 -5.000000000E-01 3.189025265E-02
 1.000000000E+00 -5.000000000E-01 3.188356851E-02
 1.147907489E+00 -4.050819153E-01 3.276895430E-02
 1.159348002E+00 -3.732379079E-01 3.294105291E-02
 1.181365030E+00 -3.119792214E-01 3.341404838E-02
 1.177469746E+00 -2.877829475E-01 3.366160818E-02
 1.197733932E+00 -2.414135583E-01 3.450633419E-02
 1.199011059E+00 -2.631488073E-01 3.422826601E-02
 1.181458919E+00 -2.218681297E-01 3.428692449E-02
 1.178923151E+00 -1.735406110E-01 3.353810151E-02
 1.165098254E+00 -1.592588202E-01 3.269403848E-02
 1.200145781E+00 -2.053367669E-01 3.456017768E-02
 1.200628640E+00 -1.882138239E-01 3.441410518E-02
 1.150000000E+00 -1.499999695E-01 3.202076326E-02
 1.193203628E+00 -3.344623711E-01 3.327332677E-02
 1.100000000E+00 -5.000000000E-01 3.191468102E-02
 1.149254346E+00 -4.536970090E-01 3.231969614E-02
 1.197809781E+00 -3.702839722E-01 3.306695449E-02
 1.200285133E+00 -3.110747014E-01 3.355606619E-02
 1.200359926E+00 -2.868726543E-01 3.386749405E-02
 1.199197208E+00 -2.230512058E-01 3.461379418E-02
 1.217555883E+00 -2.413146796E-01 3.470334556E-02
 1.221961020E+00 -2.606383780E-01 3.439125665E-02
 1.188311478E+00 -1.736318395E-01 3.386563975E-02
 1.178337393E+00 -1.610907009E-01 3.321634040E-02
 1.160000000E+00 -1.499999695E-01 3.236953583E-02
 1.201489354E+00 -1.738255933E-01 3.417439042E-02
 1.217755271E+00 -2.056393390E-01 3.484605668E-02
 1.217484387E+00 -1.880378921E-01 3.468890869E-02
 1.150000000E+00 -5.000000000E-01 3.196910745E-02
 1.197626729E+00 -4.091578427E-01 3.286435812E-02
 1.198794652E+00 -4.540558880E-01 3.237094560E-02
 1.227844520E+00 -3.360201221E-01 3.336172174E-02
 1.241121511E+00 -3.633151814E-01 3.316797398E-02
 1.226181157E+00 -3.102102684E-01 3.361880700E-02
 1.224581716E+00 -2.849485600E-01 3.398642661E-02
 1.217397501E+00 -2.235836463E-01 3.486247674E-02
 1.233080811E+00 -2.395787495E-01 3.479103539E-02
 1.246650166E+00 -2.531168366E-01 3.450441689E-02
 1.189377927E+00 -1.615313082E-01 3.355474702E-02
 1.170000000E+00 -1.499999695E-01 3.268477641E-02
 1.180000000E+00 -1.499999695E-01 3.304881993E-02
 1.200929522E+00 -1.613664272E-01 3.382083926E-02
 1.216200337E+00 -1.720115854E-01 3.440124830E-02
 1.235970011E+00 -2.055955020E-01 3.496398822E-02
 1.235382386E+00 -1.862393431E-01 3.480958141E-02
 1.200000000E+00 -5.000000000E-01 3.200026658E-02
 1.246059916E+00 -4.064727843E-01 3.290690136E-02
 1.248329222E+00 -4.530442975E-01 3.238123924E-02
 1.250871786E+00 -3.360926673E-01 3.336127190E-02
 1.251982826E+00 -3.084644819E-01 3.361534652E-02
 1.249714351E+00 -2.817292447E-01 3.399672904E-02
 1.235036384E+00 -2.243047324E-01 3.493320933E-02
 1.253623546E+00 -2.284130968E-01 3.481514575E-02
 1.190000000E+00 -1.499999695E-01 3.337121031E-02
 1.212938254E+00 -1.600298976E-01 3.400139205E-02
 1.199999988E+00 -1.499999762E-01 3.350037644E-02
 1.232889354E+00 -1.661529585E-01 3.439105281E-02
 1.255679771E+00 -2.061657539E-01 3.489830466E-02
 1.255220811E+00 -1.850516130E-01 3.477209786E-02
 1.250000000E+00 -5.000000000E-01 3.199963727E-02
 1.297108723E+00 -3.998765363E-01 3.289026230E-02
 1.298438804E+00 -4.514649641E-01 3.234508551E-02
 1.282918700E+00 -3.666694765E-01 3.310774526E-02
 1.282396201E+00 -3.354743188E-01 3.327036691E-02
 1.275406730E+00 -2.797204147E-01 3.386814135E-02
 1.280962038E+00 -3.048866989E-01 3.351703093E-02
 1.274606118E+00 -2.547848815E-01 3.424354551E-02
 1.276991368E+00 -2.298603804E-01 3.452819580E-02
 1.222947223E+00 -1.578115694E-01 3.406775397E-02
 1.211693653E+00 -1.488525539E-01 3.353703123E-02
 1.253417301E+00 -1.657890145E-01 3.442727145E-02
 1.277872707E+00 -2.054215006E-01 3.462081090E-02
 1.276450853E+00 -1.817888279E-01 3.450455120E-02
 1.300000000E+00 -5.000000000E-01 3.196259074E-02
 1.347128132E+00 -4.070835262E-01 3.273690547E-02
 1.348266969E+00 -4.526190837E-01 3.226981943E-02
 1.310998062E+00 -3.676919305E-01 3.300485483E-02
 1.314678295E+00 -3.335791621E-01 3.310916045E-02
 1.296204872E+00 -2.771482370E-01 3.369902251E-02
 1.313888052E+00 -2.954361171E-01 3.332440293E-02
 1.299319835E+00 -2.562881791E-01 3.386566437E-02
 1.301800466E+00 -2.306911719E-01 3.406230715E-02
 1.223014062E+00 -1.472518522E-01 3.365962576E-02
 1.236517240E+00 -1.488358255E-01 3.379734728E-02
 1.200000000E+00 -1.399999695E-01 3.299676105E-02
 1.210771662E+00 -1.380622634E-01 3.303994895E-02
 1.272194647E+00 -1.627938533E-01 3.424097829E-02
 1.253418784E+00 -1.489002186E-01 3.383781248E-02
 1.300544446E+00 -1.737654749E-01 3.387346271E-02
 1.302363450E+00 -2.036678324E-01 3.411234487E-02
 1.350000000E+00 -5.000000000E-01 3.189907137E-02
 1.397427828E+00 -4.516042659E-01 3.220735202E-02
 1.393785680E+00 -4.051771003E-01 3.262702937E-02
 1.349174715E+00 -3.699374185E-01 3.284872473E-02
 1.351176042E+00 -3.346842753E-01 3.287468707E-02
 1.324590977E+00 -2.623266998E-01 3.338340743E-02
 1.328439881E+00 -2.326984266E-01 3.345181033E-02
 1.220813384E+00 -1.334072372E-01 3.290433536E-02
 1.236687350E+00 -1.328649908E-01 3.300634835E-02
 1.210579613E+00 -1.299892931E-01 3.252934832E-02
 1.200000000E+00 -1.299999695E-01 3.245060643E-02
 1.287891839E+00 -1.541448618E-01 3.367467610E-02
 1.271044165E+00 -1.493456554E-01 3.374976221E-02
 1.252677881E+00 -1.313678660E-01 3.299459055E-02
 1.329253927E+00 -2.044579298E-01 3.340556954E-02
 1.329218103E+00 -1.767407174E-01 3.310176442E-02
 1.352871384E+00 -2.988704471E-01 3.288254796E-02
 1.400000000E+00 -5.000000000E-01 3.185786034E-02
 1.387124332E+00 -3.692897717E-01 3.268642704E-02
 1.447516805E+00 -4.483044856E-01 3.219602002E-02
 1.443365088E+00 -3.925891761E-01 3.253375251E-02
 1.387642433E+00 -3.353208261E-01 3.263220207E-02
 1.356659767E+00 -2.647303612E-01 3.284247604E-02
 1.358038726E+00 -2.330336319E-01 3.275823676E-02
 1.222863778E+00 -1.188423017E-01 3.203916285E-02
 1.236620461E+00 -1.177881350E-01 3.215710708E-02
 1.200000000E+00 -1.199999695E-01 3.181943952E-02
 1.210617818E+00 -1.184823104E-01 3.187944184E-02
 1.306797984E+00 -1.524851352E-01 3.315802810E-02
 1.270692245E+00 -1.312220600E-01 3.293069225E-02
 1.249816167E+00 -1.123782149E-01 3.181514100E-02
 1.330550835E+00 -1.516090686E-01 3.248253585E-02
 1.357047800E+00 -2.043575406E-01 3.258190324E-02
 1.356552403E+00 -1.770075265E-01 3.219653678E-02
 1.389436780E+00 -2.998378688E-01 3.251104313E-02
 1.450000000E+00 -5.000000000E-01 3.186026463E-02
 1.417688875E+00 -3.662969315E-01 3.256730417E-02
 1.499131819E+00 -4.488365179E-01 3.220993788E-02
 1.499112105E+00 -3.974552681E-01 3.251738700E-02
 1.422577205E+00 -3.370118466E-01 3.245030228E-02
 1.390899205E+00 -2.641631214E-01 3.229446193E-02
 1.389896523E+00 -2.299906891E-01 3.205111946E-02
 1.236960129E+00 -1.070450284E-01 3.132153861E-02
 1.223291376E+00 -1.056911973E-01 3.113886670E-02
 1.200000000E+00 -1.099999695E-01 3.118140726E-02
 1.208996602E+00 -1.051047223E-01 3.096129618E-02
 1.288949116E+00 -1.318582894E-01 3.276172520E-02
 1.308258837E+00 -1.300397109E-01 3.233310365E-02
 1.270041457E+00 -1.122622816E-01 3.184315718E-02
 1.329802477E+00 -1.264889816E-01 3.161864675E-02
 1.356431653E+00 -1.503186002E-01 3.154486035E-02
 1.383588272E+00 -1.762682289E-01 3.127044523E-02
 1.384365619E+00 -2.026179388E-01 3.176929601E-02
 1.426125544E+00 -3.006203566E-01 3.222665393E-02
 1.500000000E+00 -5.000000000E-01 3.188082788E-02
 1.458604408E+00 -3.455116940E-01 3.238194519E-02
 1.503818348E+00 -3.490806727E-01 3.238915596E-02
 1.549816649E+00 -4.495194326E-01 3.228131629E-02
 1.550035826E+00 -3.991730445E-01 3.262343124E-02
 1.427567302E+00 -2.620091083E-01 3.184729073E-02
 1.426275901E+00 -2.200569350E-01 3.117660724E-02
 1.224161815E+00 -9.178975249E-02 3.016640348E-02
 1.237951530E+00 -9.230544640E-02 3.031830392E-02
 1.200000000E+00 -9.999998474E-02 3.062407127E-02
 1.288917589E+00 -1.118301128E-01 3.173983925E-02
 1.307446016E+00 -1.092338107E-01 3.143321702E-02
 1.252780907E+00 -9.342776338E-02 3.048875562E-02
 1.270670280E+00 -9.359379713E-02 3.059953055E-02
 1.325117921E+00 -1.005119368E-01 3.054798726E-02
 1.355220307E+00 -1.235841808E-01 3.067311132E-02
 1.383396151E+00 -1.486749011E-01 3.051127245E-02
 1.410032272E+00 -1.766814203E-01 3.049319302E-02
 1.406891264E+00 -1.997854314E-01 3.114488168E-02
 1.464559654E+00 -3.032234193E-01 3.210692170E-02
 1.550000000E+00 -5.000000000E-01 3.195112538E-02
 1.506284368E+00 -3.035429834E-01 3.208816289E-02
 1.551060805E+00 -3.496486829E-01 3.256953878E-02
 1.600000000E+00 -4.000000000E-01 3.272663899E-02
 1.600000000E+00 -4.500000000E-01 3.234637688E-02
 1.466818453E+00 -2.630500159E-01 3.163159633E-02
 1.468823833E+00 -2.254138062E-01 3.086158775E-02
 1.211073818E+00 -9.135014956E-02 3.002646386E-02
 1.224118523E+00 -7.784962669E-02 2.915366777E-02
 1.237817199E+00 -7.694664289E-02 2.917195130E-02
 1.200000000E+00 -8.999998474E-02 2.995555196E-02
 1.289125693E+00 -9.371466656E-02 3.060146868E-02
 1.307489718E+00 -9.455348214E-02 3.049638343E-02
 1.252616101E+00 -7.540865344E-02 2.918929716E-02
 1.270590635E+00 -7.490373087E-02 2.927585473E-02
 1.352617431E+00 -9.707780073E-02 2.968212231E-02
 1.381946856E+00 -1.202030229E-01 2.958324251E-02
 1.411486788E+00 -1.475610773E-01 2.952545617E-02
 1.438125520E+00 -1.829313169E-01 2.995612284E-02
 1.506088259E+00 -2.615584551E-01 3.162397624E-02
 1.550273072E+00 -3.003052296E-01 3.236995124E-02
 1.600000000E+00 -3.500000000E-01 3.274661472E-02
 1.474177916E+00 -1.870113483E-01 2.970751405E-02
 1.507695579E+00 -2.315773540E-01 3.091096557E-02
 1.211061947E+00 -7.852304663E-02 2.914746790E-02
 1.236394068E+00 -6.223476328E-02 2.816871249E-02
 1.223204724E+00 -6.418232656E-02 2.820352555E-02
 1.200000000E+00 -7.999998474E-02 2.916609397E-02
 1.289253398E+00 -7.468592377E-02 2.937636004E-02
 1.308229489E+00 -7.466088765E-02 2.938322436E-02
 1.248997978E+00 -5.634823231E-02 2.779392898E-02
 1.269574329E+00 -5.586623393E-02 2.797432680E-02
 1.328139558E+00 -7.503458425E-02 2.922158413E-02
 1.351235763E+00 -7.220195003E-02 2.875797567E-02
 1.378700724E+00 -9.168541987E-02 2.865077980E-02
 1.410362267E+00 -1.167677040E-01 2.844793485E-02
 1.441906786E+00 -1.478570979E-01 2.869513848E-02
 1.543437062E+00 -2.481116956E-01 3.169078830E-02
 1.600000000E+00 -3.000000000E-01 3.266736633E-02
 1.477000034E+00 -1.485295896E-01 2.822700413E-02
 1.512433162E+00 -1.912254591E-01 2.976394912E-02
 1.209018930E+00 -6.489697625E-02 2.822811930E-02
 1.235464751E+00 -5.145524345E-02 2.734114652E-02
 1.223065621E+00 -5.177720932E-02 2.736664192E-02
 1.200000000E+00 -6.999998474E-02 2.850297702E-02
 1.288860626E+00 -5.531932375E-02 2.815539023E-02
 1.307914377E+00 -5.424949984E-02 2.822703635E-02
 1.269756457E+00 -3.688704086E-02 2.682025926E-02
 1.250940640E+00 -3.677626744E-02 2.657093188E-02
 1.327770690E+00 -5.256348019E-02 2.812688501E-02
 1.350945839E+00 -5.387956402E-02 2.788751876E-02
 1.372949304E+00 -6.257459635E-02 2.773101470E-02
 1.407157829E+00 -8.682004772E-02 2.758542115E-02
 1.440656879E+00 -1.122855518E-01 2.737943330E-02
 1.600000000E+00 -2.500000000E-01 3.229417571E-02
 1.514859522E+00 -1.491465667E-01 2.821552573E-02
 1.476646286E+00 -1.101128611E-01 2.672706431E-02
 1.552882057E+00 -1.972147958E-01 3.057884144E-02
 1.210827977E+00 -5.177952331E-02 2.739988923E-02
 1.222523657E+00 -3.970364802E-02 2.670251662E-02
 1.233212580E+00 -3.545825738E-02 2.642932108E-02
 1.200000000E+00 -6.000000000E-02 2.797699986E-02
 1.288491427E+00 -3.636794775E-02 2.708581562E-02
 1.306734568E+00 -3.442873131E-02 2.726920388E-02
 1.251638552E+00 -1.838685733E-02 2.563942722E-02
 1.269942984E+00 -1.851701520E-02 2.588674730E-02
 1.323938300E+00 -2.702875090E-02 2.707178060E-02
 1.351498812E+00 -2.799475607E-02 2.705879163E-02
 1.405645947E+00 -6.420773890E-02 2.682265726E-02
 1.433556811E+00 -7.433275936E-02 2.628901220E-02
 1.600000000E+00 -2.000000000E-01 3.129660426E-02
 1.555441416E+00 -1.496221403E-01 2.896664833E-02
 1.514228734E+00 -1.072672392E-01 2.666278435E-02
 1.474437125E+00 -7.227822930E-02 2.552036223E-02
 1.200000000E+00 -4.999998474E-02 2.740385060E-02
 1.211190839E+00 -4.044847366E-02 2.677618886E-02
 1.222327996E+00 -3.111674072E-02 2.618482083E-02
 1.288425483E+00 -1.875827123E-02 2.623079481E-02
 1.306594170E+00 -2.006872676E-02 2.657019423E-02
 1.234522844E+00 -1.821906524E-02 2.558420414E-02
 1.251008985E+00 -1.097445627E-05 2.496893589E-02
 1.269886067E+00 -1.781740475E-05 2.520890257E-02
 1.378218246E+00 -3.089830895E-02 2.676202770E-02
 1.326976683E+00 -4.779004451E-05 2.639269832E-02
 1.352537358E+00 -7.356960876E-05 2.655353694E-02
 1.408495408E+00 -3.286134863E-02 2.616660264E-02
 1.600000000E+00 -1.500000000E-01 2.961439402E-02
 1.553854741E+00 -1.021740673E-01 2.718833391E-02
 1.511416728E+00 -6.761027193E-02 2.547369939E-02
 1.439886277E+00 -3.607222905E-02 2.543947361E-02
 1.475686564E+00 -3.691602591E-02 2.492715542E-02
 1.200000000E+00 -3.999998474E-02 2.682144276E-02
 1.211192295E+00 -3.029889859E-02 2.626821841E-02
 1.222383452E+00 -1.900615888E-02 2.567481740E-02
 1.288515628E+00 -2.621027817E-05 2.558981752E-02
 1.307216195E+00 -3.357713739E-05 2.602086032E-02
 1.229610158E+00 2.341857905E-04 2.496830567E-02
 1.251636151E+00 1.836870873E-02 2.458815238E-02
 1.269935241E+00 1.848228870E-02 2.480336936E-02
 1.379797983E+00 -9.632294136E-05 2.644353218E-02
 1.351470482E+00 2.783276228E-02 2.651930092E-02
 1.323932053E+00 2.692830982E-02 2.607185458E-02
 1.409738049E+00 -1.132893677E-04 2.606350479E-02
 1.600000000E+00 -1.000000000E-01 2.758446169E-02
 1.545526578E+00 -5.178382583E-02 2.573256865E-02
 1.511382241E+00 -3.910208220E-02 2.497552402E-02
 1.476544747E+00 -9.243838485E-05 2.522530545E-02
 1.441650961E+00 -1.069973836E-04 2.554068934E-02
 1.200000000E+00 -2.999998474E-02 2.633715431E-02
 1.211154639E+00 -1.962276594E-02 2.583085843E-02
 1.221224785E+00 -7.046096442E-03 2.528569840E-02
 1.288405837E+00 1.869907806E-02 2.519595219E-02
 1.306585525E+00 1.999446807E-02 2.563705548E-02
 1.234521760E+00 1.821047799E-02 2.458352039E-02
 1.250933917E+00 3.676739418E-02 2.446769257E-02
 1.269746154E+00 3.685841572E-02 2.466629468E-02
 1.378217508E+00 3.070514641E-02 2.667244657E-02
 1.350972308E+00 5.371525776E-02 2.681533903E-02
 1.327784505E+00 5.245710523E-02 2.632959362E-02
 1.408469629E+00 3.262877590E-02 2.663510956E-02
 1.600000000E+00 -5.000000000E-02 2.609343501E-02
 1.512669199E+00 -6.330405099E-05 2.543155492E-02
 1.439891644E+00 3.586980305E-02 2.649897958E-02
 1.475659090E+00 3.673478418E-02 2.645614938E-02
 1.200000000E+00 -1.999998474E-02 2.593220814E-02
 1.210801369E+00 -9.168473943E-03 2.548823988E-02
 1.220221304E+00 5.639762474E-05 2.507542382E-02
 1.288474868E+00 3.631234574E-02 2.507422830E-02
 1.306727499E+00 3.435293817E-02 2.555881563E-02
 1.221732506E+00 7.235208221E-03 2.489127177E-02
 1.222382768E+00 1.900107353E-02 2.471669712E-02
 1.233205608E+00 3.545983268E-02 2.450012053E-02
 1.248989363E+00 5.635052891E-02 2.460154769E-02
 1.269566014E+00 5.584596093E-02 2.479378812E-02
 1.373003172E+00 6.240010054E-02 2.742603485E-02
 1.351303364E+00 7.204149296E-02 2.735730583E-02
 1.328178190E+00 7.493451365E-02 2.681366156E-02
 1.307917551E+00 5.417662905E-02 2.576001157E-02
 1.405709684E+00 6.399571184E-02 2.766065620E-02
 1.600000000E+00 0.000000000E+00 2.591715000E-02
 1.550979181E+00 -3.270768808E-05 2.583292888E-02
 1.511385226E+00 3.898221295E-02 2.666181124E-02
 1.433632175E+00 7.416468400E-02 2.838132417E-02
 1.474494489E+00 7.213525702E-02 2.842095720E-02
 1.200000000E+00 -9.999984741E-03 2.560986394E-02
 1.210724277E+00 -1.949596454E-06 2.525230580E-02
 1.288850065E+00 5.526984601E-02 2.521222442E-02
 1.210801396E+00 9.164896564E-03 2.507456461E-02
 1.211154489E+00 1.962011382E-02 2.494970090E-02
 1.222322322E+00 3.111775499E-02 2.465628503E-02
 1.235450332E+00 5.146777557E-02 2.456469252E-02
 1.252611646E+00 7.541961117E-02 2.499243551E-02
 1.270586836E+00 7.489373208E-02 2.515726373E-02
 1.308247619E+00 7.459550345E-02 2.615794115E-02
 1.352738475E+00 9.695080053E-02 2.824430444E-02
 1.325184380E+00 1.004443310E-01 2.750403912E-02
 1.407280919E+00 8.664577403E-02 2.891169579E-02
 1.378812997E+00 9.154289373E-02 2.869120393E-02
 1.545538209E+00 5.171893619E-02 2.753638003E-02
 1.600000000E+00 5.000000000E-02 2.730130999E-02
 1.511448995E+00 6.751066652E-02 2.842853962E-02
 1.440784140E+00 1.121768740E-01 3.070406838E-02
 1.476773204E+00 1.100281496E-01 3.080587368E-02
 1.200000000E+00 1.525878906E-08 2.536939854E-02
 1.289255985E+00 7.464309684E-02 2.556839690E-02
 1.211189755E+00 3.029936470E-02 2.491250045E-02
 1.200000000E+00 2.000001526E-02 2.509592151E-02
 1.200000000E+00 1.000001526E-02 2.519722591E-02
 1.222511158E+00 3.971074905E-02 2.468566492E-02
 1.236384903E+00 6.225190271E-02 2.475378993E-02
 1.223031967E+00 5.179529023E-02 2.478164277E-02
 1.237813826E+00 7.696919890E-02 2.507388403E-02
 1.252785182E+00 9.343834659E-02 2.551244646E-02
 1.270678249E+00 9.358874941E-02 2.568720897E-02
 1.307528336E+00 9.450321580E-02 2.661461668E-02
 1.355375073E+00 1.235396821E-01 2.939186271E-02
 1.329895772E+00 1.264614273E-01 2.864218837E-02
 1.382100654E+00 1.201196299E-01 3.006679824E-02
 1.410544384E+00 1.166774938E-01 3.048867037E-02
 1.553877641E+00 1.021345092E-01 3.018306731E-02
 1.600000000E+00 1.000000000E-01 2.961714381E-02
 1.514287551E+00 1.071991858E-01 3.077772611E-02
 1.477097263E+00 1.484691960E-01 3.296522987E-02
 1.442032078E+00 1.477792032E-01 3.263432632E-02
 1.289148449E+00 9.368005231E-02 2.607354201E-02
 1.211184913E+00 4.045263610E-02 2.496284658E-02
 1.200000000E+00 3.000000763E-02 2.507259790E-02
 1.223194453E+00 6.420878647E-02 2.499990176E-02
 1.210817070E+00 5.178825073E-02 2.509313670E-02
 1.237955246E+00 9.232523207E-02 2.553758004E-02
 1.224117723E+00 7.787881265E-02 2.532082709E-02
 1.249830209E+00 1.123921699E-01 2.620790651E-02
 1.270062404E+00 1.122674341E-01 2.634335479E-02
 1.307497685E+00 1.092003023E-01 2.719018487E-02
 1.356573963E+00 1.502979303E-01 3.051608501E-02
 1.330645218E+00 1.516128319E-01 2.960997586E-02
 1.308318734E+00 1.300397821E-01 2.799778833E-02
 1.411651072E+00 1.474937411E-01 3.207485316E-02
 1.383556386E+00 1.486335659E-01 3.137266256E-02
 1.555465803E+00 1.495986444E-01 3.236439662E-02
 1.600000000E+00 1.500000000E-01 3.172204025E-02
 1.514915459E+00 1.491027231E-01 3.302039227E-02
 1.438215852E+00 1.828487736E-01 3.381534854E-02
 1.474251996E+00 1.869625161E-01 3.420471701E-02
 1.288959290E+00 1.118138804E-01 2.670975121E-02
 1.200000000E+00 4.000000763E-02 2.512224728E-02
 1.209014623E+00 6.490670562E-02 2.539057768E-02
 1.200000000E+00 5.000000763E-02 2.525479923E-02
 1.236971481E+00 1.070627035E-01 2.604600159E-02
 1.224169582E+00 9.181251968E-02 2.574620548E-02
 1.211061591E+00 7.853647564E-02 2.567527394E-02
 1.270716490E+00 1.312473128E-01 2.711064956E-02
 1.252694177E+00 1.313892748E-01 2.699801541E-02
 1.306851450E+00 1.525118397E-01 2.882610096E-02
 1.329269621E+00 1.767561537E-01 3.046365515E-02
 1.356654475E+00 1.769861187E-01 3.141410579E-02
 1.288994820E+00 1.318928851E-01 2.748092649E-02
 1.383724054E+00 1.762569421E-01 3.232147900E-02
 1.410179425E+00 1.766140961E-01 3.312008816E-02
 1.552903700E+00 1.972002558E-01 3.359582284E-02
 1.600000000E+00 2.000000000E-01 3.301019694E-02
 1.512478788E+00 1.911932467E-01 3.422444890E-02
 1.468864887E+00 2.253720710E-01 3.457953379E-02
 1.426318918E+00 2.199935970E-01 3.410378798E-02
 1.200000000E+00 6.000000763E-02 2.546765857E-02
 1.236637804E+00 1.178030904E-01 2.654550309E-02
 1.223309353E+00 1.057036876E-01 2.625227129E-02
 1.211077243E+00 9.136201334E-02 2.606429143E-02
 1.200000000E+00 7.000000763E-02 2.565232580E-02
 1.200000000E+00 8.000000763E-02 2.587470997E-02
 1.236704289E+00 1.328808790E-01 2.713904399E-02
 1.253437625E+00 1.489259043E-01 2.775792640E-02
 1.271065346E+00 1.493823842E-01 2.783016965E-02
 1.300560602E+00 1.738057217E-01 2.952043267E-02
 1.287922233E+00 1.541864557E-01 2.833868317E-02
 1.329243826E+00 2.044859722E-01 3.129569131E-02
 1.357065422E+00 2.043607123E-01 3.213225543E-02
 1.384430117E+00 2.025920623E-01 3.296592222E-02
 1.406976153E+00 1.997332518E-01 3.352776862E-02
 1.543451725E+00 2.480991069E-01 3.401260081E-02
 1.600000000E+00 2.500000000E-01 3.343843979E-02
 1.507724215E+00 2.315486829E-01 3.457226322E-02
 1.466823718E+00 2.629948210E-01 3.439074990E-02
 1.427544683E+00 2.618997529E-01 3.412131340E-02
 1.222898939E+00 1.188479307E-01 2.678869946E-02
 1.209003562E+00 1.051102884E-01 2.662010436E-02
 1.200000000E+00 9.000000000E-02 2.623241901E-02
 1.220833492E+00 1.334127936E-01 2.743579321E-02
 1.236535842E+00 1.488567254E-01 2.783164083E-02
 1.272207015E+00 1.628381323E-01 2.851104448E-02
 1.253427776E+00 1.658144628E-01 2.853144086E-02
 1.302324973E+00 2.037233209E-01 3.063753241E-02
 1.328362739E+00 2.326858156E-01 3.201861137E-02
 1.357971233E+00 2.329835310E-01 3.271571584E-02
 1.389902570E+00 2.299348074E-01 3.345188686E-02
 1.550279022E+00 3.002991182E-01 3.362442721E-02
 1.600000000E+00 3.000000000E-01 3.334224116E-02
 1.506101461E+00 2.615303070E-01 3.439398595E-02
 1.426081984E+00 3.005046510E-01 3.376911941E-02
 1.464545830E+00 3.031646060E-01 3.391927389E-02
 1.390873118E+00 2.640602606E-01 3.360433296E-02
 1.210631214E+00 1.184857412E-01 2.709795611E-02
 1.200000000E+00 1.000000000E-01 2.662565007E-02
 1.223034827E+00 1.472617618E-01 2.800170310E-02
 1.210591777E+00 1.299904994E-01 2.755025782E-02
 1.232893682E+00 1.661909116E-01 2.866851269E-02
 1.276434734E+00 1.818508385E-01 2.936076160E-02
 1.255190155E+00 1.851282146E-01 2.936030795E-02
 1.301708942E+00 2.307188160E-01 3.146014228E-02
 1.277806798E+00 2.054973152E-01 3.030202001E-02
 1.356539867E+00 2.645825982E-01 3.300712965E-02
 1.324471462E+00 2.622456928E-01 3.243547445E-02
 1.506286403E+00 3.035198081E-01 3.392035347E-02
 1.551063359E+00 3.496448209E-01 3.331216992E-02
 1.600000000E+00 3.500000000E-01 3.313880022E-02
 1.422529247E+00 3.369000889E-01 3.343214428E-02
 1.458585324E+00 3.454605164E-01 3.350572373E-02
 1.389359610E+00 2.996729058E-01 3.343648266E-02
 1.200000000E+00 1.100000000E-01 2.693889863E-02
 1.200000000E+00 1.200000076E-01 2.727535603E-02
 1.210783709E+00 1.380648645E-01 2.792488610E-02
 1.211709567E+00 1.488561649E-01 2.831173647E-02